 Entering Gaussian System, Link 0=g09
 Input=s00000.com
 Output=s00000.log
 Initial command:
 /opt/gaussian/gaussian/g09/l1.exe "/tmp/Gau-13082.inp" -scrdir="/tmp/"
 Entering Link 1 = /opt/gaussian/gaussian/g09/l1.exe PID=     13083.
  
 Copyright (c) 1988,1990,1992,1993,1995,1998,2003,2009,2013,
            Gaussian, Inc.  All Rights Reserved.
  
 This is part of the Gaussian(R) 09 program.  It is based on
 the Gaussian(R) 03 system (copyright 2003, Gaussian, Inc.),
 the Gaussian(R) 98 system (copyright 1998, Gaussian, Inc.),
 the Gaussian(R) 94 system (copyright 1995, Gaussian, Inc.),
 the Gaussian 92(TM) system (copyright 1992, Gaussian, Inc.),
 the Gaussian 90(TM) system (copyright 1990, Gaussian, Inc.),
 the Gaussian 88(TM) system (copyright 1988, Gaussian, Inc.),
 the Gaussian 86(TM) system (copyright 1986, Carnegie Mellon
 University), and the Gaussian 82(TM) system (copyright 1983,
 Carnegie Mellon University). Gaussian is a federally registered
 trademark of Gaussian, Inc.
  
 This software contains proprietary and confidential information,
 including trade secrets, belonging to Gaussian, Inc.
  
 This software is provided under written license and may be
 used, copied, transmitted, or stored only in accord with that
 written license.
  
 The following legend is applicable only to US Government
 contracts under FAR:
  
                    RESTRICTED RIGHTS LEGEND
  
 Use, reproduction and disclosure by the US Government is
 subject to restrictions as set forth in subparagraphs (a)
 and (c) of the Commercial Computer Software - Restricted
 Rights clause in FAR 52.227-19.
  
 Gaussian, Inc.
 340 Quinnipiac St., Bldg. 40, Wallingford CT 06492
  
  
 ---------------------------------------------------------------
 Warning -- This program may not be used in any manner that
 competes with the business of Gaussian, Inc. or will provide
 assistance to any competitor of Gaussian, Inc.  The licensee
 of this program is prohibited from giving any competitor of
 Gaussian, Inc. access to this program.  By using this program,
 the user acknowledges that Gaussian, Inc. is engaged in the
 business of creating and licensing software in the field of
 computational chemistry and represents and warrants to the
 licensee that it is not a competitor of Gaussian, Inc. and that
 it will not use this program in any manner prohibited above.
 ---------------------------------------------------------------
  

 Cite this work as:
 Gaussian 09, Revision D.01,
 M. J. Frisch, G. W. Trucks, H. B. Schlegel, G. E. Scuseria, 
 M. A. Robb, J. R. Cheeseman, G. Scalmani, V. Barone, B. Mennucci, 
 G. A. Petersson, H. Nakatsuji, M. Caricato, X. Li, H. P. Hratchian, 
 A. F. Izmaylov, J. Bloino, G. Zheng, J. L. Sonnenberg, M. Hada, 
 M. Ehara, K. Toyota, R. Fukuda, J. Hasegawa, M. Ishida, T. Nakajima, 
 Y. Honda, O. Kitao, H. Nakai, T. Vreven, J. A. Montgomery, Jr., 
 J. E. Peralta, F. Ogliaro, M. Bearpark, J. J. Heyd, E. Brothers, 
 K. N. Kudin, V. N. Staroverov, T. Keith, R. Kobayashi, J. Normand, 
 K. Raghavachari, A. Rendell, J. C. Burant, S. S. Iyengar, J. Tomasi, 
 M. Cossi, N. Rega, J. M. Millam, M. Klene, J. E. Knox, J. B. Cross, 
 V. Bakken, C. Adamo, J. Jaramillo, R. Gomperts, R. E. Stratmann, 
 O. Yazyev, A. J. Austin, R. Cammi, C. Pomelli, J. W. Ochterski, 
 R. L. Martin, K. Morokuma, V. G. Zakrzewski, G. A. Voth, 
 P. Salvador, J. J. Dannenberg, S. Dapprich, A. D. Daniels, 
 O. Farkas, J. B. Foresman, J. V. Ortiz, J. Cioslowski, 
 and D. J. Fox, Gaussian, Inc., Wallingford CT, 2013.
 
 ******************************************
 Gaussian 09:  ES64L-G09RevD.01 24-Apr-2013
                17-Sep-2017 
 ******************************************
 %nprocshared=1
 Will use up to    1 processors via shared memory.
 %mem=4GB
 ----------------------------------------------------------
 #p freq=(HPModes) B3LYP/6-31G(d) scrf=(CPCM,solvent=water)
 ----------------------------------------------------------
 1/10=4,30=1,38=1/1,3;
 2/12=2,17=6,18=5,40=1/2;
 3/5=1,6=6,7=1,11=2,16=1,25=1,30=1,70=2101,71=2,72=1,74=-5,140=1/1,2,3;
 4//1;
 5/5=2,38=5,53=1,98=1/2;
 8/6=4,10=90,11=11/1;
 11/6=1,8=1,9=11,15=111,16=1/1,2,10;
 10/6=1/2;
 6/7=2,8=2,9=2,10=2,18=1,28=1/1;
 7/8=11,10=1,25=1/1,2,3,16;
 1/10=4,30=1/3;
 99//99;
 Leave Link    1 at Sun Sep 17 22:36:15 2017, MaxMem=   536870912 cpu:         0.0
 (Enter /opt/gaussian/gaussian/g09/l101.exe)
 ------------------
 snapshot No. 00000
 ------------------
 Symbolic Z-matrix:
 Charge =  0 Multiplicity = 1
 H                     15.369    13.546    16.693 
 C                     14.367    13.828    16.369 
 H                     13.798    14.375    17.121 
 H                     13.756    12.955    16.142 
 C                     14.417    14.574    15.046 
 O                     13.347    14.736    14.462 
 N                     15.397    15.516    15.053 
 H                     15.896    15.536    15.931 
 C                     15.727    16.307    13.871 
 H                     16.69     16.818    13.892 
 H                     15.657    15.788    12.915 
 H                     14.962    17.081    13.932 
 O                     11.467    16.247    12.712 
 H                     12.348    15.784    12.813 
 H                     10.729    15.575    12.773 
 O                     11.258    12.516    13.942 
 H                     11.704    11.666    13.663 
 H                     11.922    13.264    13.923 
 O                     11.318    15.147    16.843 
 H                     11.474    15.364    15.879 
 H                     10.573    14.483    16.918 
 O                     17.037    15.926    17.183 
 H                     17.932    15.879    16.738 
 H                     16.925    15.14     17.791 
 O                     14.777    17.916    17.792 
 H                     15.223    17.032    17.932 
 H                     15.207    18.388    17.022 
 
 NAtoms=     27 NQM=       27 NQMF=       0 NMMI=      0 NMMIF=      0
                NMic=       0 NMicF=      0.
                    Isotopes and Nuclear Properties:
 (Nuclear quadrupole moments (NQMom) in fm**2, nuclear magnetic moments (NMagM)
  in nuclear magnetons)

  Atom         1           2           3           4           5           6           7           8           9          10
 IAtWgt=           1          12           1           1          12          16          14           1          12           1
 AtmWgt=   1.0078250  12.0000000   1.0078250   1.0078250  12.0000000  15.9949146  14.0030740   1.0078250  12.0000000   1.0078250
 NucSpn=           1           0           1           1           0           0           2           1           0           1
 AtZEff=   0.0000000   0.0000000   0.0000000   0.0000000   0.0000000   0.0000000   0.0000000   0.0000000   0.0000000   0.0000000
 NQMom=    0.0000000   0.0000000   0.0000000   0.0000000   0.0000000   0.0000000   2.0440000   0.0000000   0.0000000   0.0000000
 NMagM=    2.7928460   0.0000000   2.7928460   2.7928460   0.0000000   0.0000000   0.4037610   2.7928460   0.0000000   2.7928460
 AtZNuc=   1.0000000   6.0000000   1.0000000   1.0000000   6.0000000   8.0000000   7.0000000   1.0000000   6.0000000   1.0000000

  Atom        11          12          13          14          15          16          17          18          19          20
 IAtWgt=           1           1          16           1           1          16           1           1          16           1
 AtmWgt=   1.0078250   1.0078250  15.9949146   1.0078250   1.0078250  15.9949146   1.0078250   1.0078250  15.9949146   1.0078250
 NucSpn=           1           1           0           1           1           0           1           1           0           1
 AtZEff=   0.0000000   0.0000000   0.0000000   0.0000000   0.0000000   0.0000000   0.0000000   0.0000000   0.0000000   0.0000000
 NQMom=    0.0000000   0.0000000   0.0000000   0.0000000   0.0000000   0.0000000   0.0000000   0.0000000   0.0000000   0.0000000
 NMagM=    2.7928460   2.7928460   0.0000000   2.7928460   2.7928460   0.0000000   2.7928460   2.7928460   0.0000000   2.7928460
 AtZNuc=   1.0000000   1.0000000   8.0000000   1.0000000   1.0000000   8.0000000   1.0000000   1.0000000   8.0000000   1.0000000

  Atom        21          22          23          24          25          26          27
 IAtWgt=           1          16           1           1          16           1           1
 AtmWgt=   1.0078250  15.9949146   1.0078250   1.0078250  15.9949146   1.0078250   1.0078250
 NucSpn=           1           0           1           1           0           1           1
 AtZEff=   0.0000000   0.0000000   0.0000000   0.0000000   0.0000000   0.0000000   0.0000000
 NQMom=    0.0000000   0.0000000   0.0000000   0.0000000   0.0000000   0.0000000   0.0000000
 NMagM=    2.7928460   0.0000000   2.7928460   2.7928460   0.0000000   2.7928460   2.7928460
 AtZNuc=   1.0000000   8.0000000   1.0000000   1.0000000   8.0000000   1.0000000   1.0000000
 Leave Link  101 at Sun Sep 17 22:36:16 2017, MaxMem=   536870912 cpu:         0.1
 (Enter /opt/gaussian/gaussian/g09/l103.exe)

 GradGradGradGradGradGradGradGradGradGradGradGradGradGradGradGradGradGrad
 Berny optimization.
 Initialization pass.
 Trust Radius=3.00D-01 FncErr=1.00D-07 GrdErr=1.00D-07
 Number of steps in this run=      2 maximum allowed number of steps=      2.
 GradGradGradGradGradGradGradGradGradGradGradGradGradGradGradGradGradGrad

 Leave Link  103 at Sun Sep 17 22:36:16 2017, MaxMem=   536870912 cpu:         0.0
 (Enter /opt/gaussian/gaussian/g09/l202.exe)
                          Input orientation:                          
 ---------------------------------------------------------------------
 Center     Atomic      Atomic             Coordinates (Angstroms)
 Number     Number       Type             X           Y           Z
 ---------------------------------------------------------------------
      1          1           0       15.369000   13.546000   16.693000
      2          6           0       14.367000   13.828000   16.369000
      3          1           0       13.798000   14.375000   17.121000
      4          1           0       13.756000   12.955000   16.142000
      5          6           0       14.417000   14.574000   15.046000
      6          8           0       13.347000   14.736000   14.462000
      7          7           0       15.397000   15.516000   15.053000
      8          1           0       15.896000   15.536000   15.931000
      9          6           0       15.727000   16.307000   13.871000
     10          1           0       16.690000   16.818000   13.892000
     11          1           0       15.657000   15.788000   12.915000
     12          1           0       14.962000   17.081000   13.932000
     13          8           0       11.467000   16.247000   12.712000
     14          1           0       12.348000   15.784000   12.813000
     15          1           0       10.729000   15.575000   12.773000
     16          8           0       11.258000   12.516000   13.942000
     17          1           0       11.704000   11.666000   13.663000
     18          1           0       11.922000   13.264000   13.923000
     19          8           0       11.318000   15.147000   16.843000
     20          1           0       11.474000   15.364000   15.879000
     21          1           0       10.573000   14.483000   16.918000
     22          8           0       17.037000   15.926000   17.183000
     23          1           0       17.932000   15.879000   16.738000
     24          1           0       16.925000   15.140000   17.791000
     25          8           0       14.777000   17.916000   17.792000
     26          1           0       15.223000   17.032000   17.932000
     27          1           0       15.207000   18.388000   17.022000
 ---------------------------------------------------------------------
                    Distance matrix (angstroms):
                    1          2          3          4          5
     1  H    0.000000
     2  C    1.090185   0.000000
     3  H    1.827147   1.090172   0.000000
     4  H    1.804065   1.089486   1.725284   0.000000
     5  C    2.162336   1.519653   2.174485   2.063807   0.000000
     6  O    3.237583   2.345530   2.721030   2.482265   1.229715
     7  N    2.563452   2.375311   2.852246   3.230716   1.359343
     8  H    2.195102   2.333870   2.676869   3.359417   1.973857
     9  C    3.964211   3.772936   4.244545   4.503131   2.469821
    10  H    4.505178   4.524595   4.975777   5.347301   3.396142
    11  H    4.402589   4.175622   4.810705   4.696085   2.748192
    12  H    4.503887   4.107920   4.341319   4.833468   2.796975
    13  O    6.194301   5.256920   5.327028   5.276522   4.116914
    14  H    5.402729   4.532928   4.758849   4.589983   3.275843
    15  H    6.404127   5.405393   5.455627   5.232331   4.446333
    16  O    5.052645   4.156628   4.473648   3.357488   3.928544
    17  H    5.113465   4.369010   4.866342   3.466651   4.210644
    18  H    4.431053   3.504146   3.870517   2.895341   3.033522
    19  O    4.358475   3.355717   2.612215   3.352627   3.627856
    20  H    4.374785   3.311925   2.814545   3.328659   3.158993
    21  H    4.891851   3.889070   3.233187   3.615031   4.276564
    22  O    2.947325   3.491862   3.591736   4.547030   3.641301
    23  H    3.466105   4.129405   4.415729   5.132638   4.113528
    24  H    2.483460   3.207303   3.288199   4.187599   3.761043
    25  O    4.544795   4.347962   3.734617   5.326956   4.340401
    26  H    3.702517   3.666241   3.122178   4.688083   3.875616
    27  H    4.855867   4.682479   4.254321   5.691862   4.367525
                    6          7          8          9         10
     6  O    0.000000
     7  N    2.271603   0.000000
     8  H    3.048830   1.010092   0.000000
     9  C    2.912340   1.460036   2.206038   0.000000
    10  H    3.979356   2.171399   2.536036   1.090381   0.000000
    11  H    2.972543   2.170859   3.035932   1.090044   1.755710
    12  H    2.896230   1.973598   2.693582   1.089964   1.748357
    13  O    2.979936   4.632444   5.521189   4.415255   5.384995
    14  H    2.194426   3.792865   4.729877   3.579181   4.591989
    15  H    3.226541   5.195393   6.055772   5.169278   6.191182
    16  O    3.092365   5.231218   5.881119   5.860775   6.929382
    17  H    3.572499   5.512971   6.139510   6.145460   7.173266
    18  H    2.118474   4.292322   4.998672   4.872430   5.946907
    19  O    3.155142   4.469732   4.684138   5.442211   6.352875
    20  H    2.431132   4.011896   4.425649   4.796803   5.767923
    21  H    3.713626   5.274115   5.515189   6.258986   7.212946
    22  O    4.736670   2.719301   1.738242   3.581983   3.427354
    23  H    5.244888   3.065488   2.216798   3.642101   3.244072
    24  H    4.903829   3.157975   2.162234   4.261865   4.251248
    25  O    4.821431   3.694120   3.221782   4.343457   4.480533
    26  H    4.564197   3.258400   2.587459   4.155883   4.303427
    27  H    4.832215   3.487326   3.130320   3.811792   3.802774
                   11         12         13         14         15
    11  H    0.000000
    12  H    1.785823   0.000000
    13  O    4.219951   3.794599   0.000000
    14  H    3.310574   3.125279   1.000365   0.000000
    15  H    4.934645   4.640001   0.999974   1.632924   0.000000
    16  O    5.577805   5.878685   3.934074   3.625268   3.317210
    17  H    5.759913   6.325279   4.684670   4.253841   4.125895
    18  H    4.619184   4.879669   3.251436   2.786391   2.843672
    19  O    5.887868   5.049061   4.277542   4.208036   4.134611
    20  H    5.144177   4.347993   3.287800   3.215685   3.201060
    21  H    6.601067   5.910086   4.647727   4.657709   4.289269
    22  O    4.487680   4.025997   7.149670   6.411223   7.704685
    23  H    4.449633   4.259030   7.624980   6.826105   8.227810
    24  H    5.079676   4.744758   7.537337   6.792948   7.984984
    25  O    5.393321   3.953612   6.288725   5.935984   6.859807
    26  H    5.187117   4.008806   6.478593   6.002274   6.995296
    27  H    4.881593   3.363982   6.094882   5.715801   6.783764
                   16         17         18         19         20
    16  O    0.000000
    17  H    0.999628   0.000000
    18  H    1.000380   1.633624   0.000000
    19  O    3.916831   4.730619   3.526600   0.000000
    20  H    3.451048   4.317263   2.904589   1.000360   0.000000
    21  H    3.632477   4.450806   3.503682   1.000773   1.633243
    22  O    7.451780   7.679771   6.623977   5.781816   5.741361
    23  H    7.979327   8.123606   7.133201   6.655212   6.535202
    24  H    7.335875   7.507856   6.596272   5.686581   5.780945
    25  O    7.507720   8.096571   6.690388   4.531296   4.591523
    26  H    7.213569   7.707248   6.416113   4.470813   4.588250
    27  H    7.717602   8.290909   6.830110   5.065614   4.938250
                   21         22         23         24         25
    21  H    0.000000
    22  O    6.628406   0.000000
    23  H    7.492403   1.000629   0.000000
    24  H    6.445284   1.000002   1.633701   0.000000
    25  O    5.497543   3.072227   3.900553   3.509997   0.000000
    26  H    5.398898   2.252739   3.177062   2.548794   0.999986
    27  H    6.060841   3.071850   3.715018   3.753983   1.000292
                   26         27
    26  H    0.000000
    27  H    1.633123   0.000000
 Stoichiometry    C3H17NO6
 Framework group  C1[X(C3H17NO6)]
 Deg. of freedom    75
 Full point group                 C1      NOp   1
 Largest Abelian subgroup         C1      NOp   1
 Largest concise Abelian subgroup C1      NOp   1
                         Standard orientation:                         
 ---------------------------------------------------------------------
 Center     Atomic      Atomic             Coordinates (Angstroms)
 Number     Number       Type             X           Y           Z
 ---------------------------------------------------------------------
      1          1           0        1.125820   -0.969527   -2.194131
      2          6           0        0.294646   -1.030244   -1.491303
      3          1           0        0.420777   -1.794464   -0.724144
      4          1           0       -0.637469   -1.292210   -1.990817
      5          6           0       -0.002669    0.332146   -0.887280
      6          8           0       -1.058390    0.443090   -0.266520
      7          7           0        1.141928    0.956169   -0.502173
      8          1           0        1.960382    0.395088   -0.690866
      9          6           0        1.149640    2.320892    0.016648
     10          1           0        2.117912    2.822154    0.027476
     11          1           0        0.434938    3.007642   -0.436974
     12          1           0        0.881841    2.137627    1.057186
     13          8           0       -2.775488    1.568575    1.893313
     14          1           0       -2.216914    1.731941    1.079656
     15          1           0       -3.591157    1.049378    1.638230
     16          8           0       -3.822287   -0.494093   -1.288912
     17          1           0       -3.939058   -0.269011   -2.255845
     18          1           0       -3.014882   -0.024078   -0.931219
     19          8           0       -1.357709   -2.387416    1.094939
     20          1           0       -1.608864   -1.423796    1.190229
     21          1           0       -2.169064   -2.919883    0.850547
     22          8           0        3.607387   -0.141165   -0.836793
     23          1           0        4.080598    0.607674   -1.302164
     24          1           0        3.499612   -0.910341   -1.466680
     25          8           0        2.903774   -1.130605    1.985355
     26          1           0        2.973217   -1.281923    0.999326
     27          1           0        3.060824   -0.163302    2.185962
 ---------------------------------------------------------------------
 Rotational constants (GHZ):      0.9251556      0.4427030      0.4256638
 Leave Link  202 at Sun Sep 17 22:36:16 2017, MaxMem=   536870912 cpu:         0.0
 (Enter /opt/gaussian/gaussian/g09/l301.exe)
 Standard basis: 6-31G(d) (6D, 7F)
 Ernie: Thresh=  0.10000D-02 Tol=  0.10000D-05 Strict=F.
 There are   184 symmetry adapted cartesian basis functions of A   symmetry.
 There are   184 symmetry adapted basis functions of A   symmetry.
   184 basis functions,   348 primitive gaussians,   184 cartesian basis functions
    45 alpha electrons       45 beta electrons
       nuclear repulsion energy       598.0547606335 Hartrees.
 IExCor=  402 DFT=T Ex+Corr=B3LYP ExCW=0 ScaHFX=  0.200000
 ScaDFX=  0.800000  0.720000  1.000000  0.810000 ScalE2=  1.000000  1.000000
 IRadAn=      0 IRanWt=     -1 IRanGd=            0 ICorTp=0 IEmpDi=  4
 NAtoms=   27 NActive=   27 NUniq=   27 SFac= 1.00D+00 NAtFMM=   60 NAOKFM=F Big=F
 Integral buffers will be    131072 words long.
 Raffenetti 2 integral format.
 Two-electron integral symmetry is turned on.
 Force inversion solution in PCM.
 ------------------------------------------------------------------------------
 Polarizable Continuum Model (PCM)
 =================================
 Model                : C-PCM.
 Atomic radii         : UFF (Universal Force Field).
 Polarization charges : Total charges.
 Charge compensation  : None.
 Solution method      : Matrix inversion.
 Cavity type          : Scaled VdW (van der Waals Surface) (Alpha=1.100).
 Cavity algorithm     : GePol (No added spheres)
                        Default sphere list used, NSphG=   27.
                        Lebedev-Laikov grids with approx.  5.0 points / Ang**2.
                        Smoothing algorithm: Karplus/York (Gamma=1.0000).
                        Polarization charges: spherical gaussians, with
                                              point-specific exponents (IZeta= 3).
                        Self-potential: point-specific (ISelfS= 7).
                        Self-field    : sphere-specific E.n sum rule (ISelfD= 2).
 1st derivatives      : Analytical E(r).r(x)/FMM algorithm (CHGder, D1EAlg=3).
                        Cavity 1st derivative terms included.
 2nd derivatives      : Analytical E(r).r(xy)/FMM algorithm (CHGder, D2EAlg=3).
                        Cavity 2nd derivative terms included.
 Solvent              : Water, Eps=  78.355300 Eps(inf)=   1.777849
 ------------------------------------------------------------------------------
 GePol: Number of generator spheres                  =      27
 GePol: Total number of spheres                      =      27
 GePol: Number of exposed spheres                    =      27 (100.00%)
 GePol: Number of points                             =    2498
 GePol: Average weight of points                     =       0.13
 GePol: Minimum weight of points                     =   0.10D-08
 GePol: Maximum weight of points                     =    0.20577
 GePol: Number of points with low weight             =     152
 GePol: Fraction of low-weight points (<1% of avg)   =       6.08%
 GePol: Cavity surface area                          =    321.094 Ang**2
 GePol: Cavity volume                                =    289.618 Ang**3
 Leave Link  301 at Sun Sep 17 22:36:16 2017, MaxMem=   536870912 cpu:         0.0
 (Enter /opt/gaussian/gaussian/g09/l302.exe)
 NPDir=0 NMtPBC=     1 NCelOv=     1 NCel=       1 NClECP=     1 NCelD=      1
         NCelK=      1 NCelE2=     1 NClLst=     1 CellRange=     0.0.
 One-electron integrals computed using PRISM.
 NBasis=   184 RedAO= T EigKep=  3.83D-03  NBF=   184
 NBsUse=   184 1.00D-06 EigRej= -1.00D+00 NBFU=   184
 Precomputing XC quadrature grid using
 IXCGrd= 4 IRadAn=           0 IRanWt=          -1 IRanGd=           0 AccXCQ= 0.00D+00.
 Generated NRdTot=       0 NPtTot=           0 NUsed=           0 NTot=          32
 NSgBfM=   182   182   182   182   182 MxSgAt=    27 MxSgA2=    27.
 Leave Link  302 at Sun Sep 17 22:36:16 2017, MaxMem=   536870912 cpu:         0.4
 (Enter /opt/gaussian/gaussian/g09/l303.exe)
 DipDrv:  MaxL=1.
 Leave Link  303 at Sun Sep 17 22:36:16 2017, MaxMem=   536870912 cpu:         0.0
 (Enter /opt/gaussian/gaussian/g09/l401.exe)
 ExpMin= 1.61D-01 ExpMax= 5.48D+03 ExpMxC= 8.25D+02 IAcc=1 IRadAn=         1 AccDes= 0.00D+00
 Harris functional with IExCor=  402 and IRadAn=       1 diagonalized for initial guess.
 HarFok:  IExCor=  402 AccDes= 0.00D+00 IRadAn=         1 IDoV= 1 UseB2=F ITyADJ=14
 ICtDFT=  3500011 ScaDFX=  1.000000  1.000000  1.000000  1.000000
 FoFCou: FMM=F IPFlag=           0 FMFlag=      100000 FMFlg1=           0
         NFxFlg=           0 DoJE=T BraDBF=F KetDBF=T FulRan=T
         wScrn=  0.000000 ICntrl=     500 IOpCl=  0 I1Cent=   200000004 NGrid=           0
         NMat0=    1 NMatS0=      1 NMatT0=    0 NMatD0=    1 NMtDS0=    0 NMtDT0=    0
 Petite list used in FoFCou.
 Harris En= -630.744392290181    
 JPrj=0 DoOrth=F DoCkMO=F.
 Leave Link  401 at Sun Sep 17 22:36:18 2017, MaxMem=   536870912 cpu:         1.2
 (Enter /opt/gaussian/gaussian/g09/l502.exe)
 Closed shell SCF:
 Using DIIS extrapolation, IDIIS=  1040.
 Integral symmetry usage will be decided dynamically.
 Keep R1 ints in memory in canonical form, NReq=154734840.
 IVT=      122638 IEndB=      122638 NGot=   536870912 MDV=   391899565
 LenX=   391899565 LenY=   391865268
 Requested convergence on RMS density matrix=1.00D-08 within 128 cycles.
 Requested convergence on MAX density matrix=1.00D-06.
 Requested convergence on             energy=1.00D-06.
 No special actions if energy rises.
 FoFCou: FMM=F IPFlag=           0 FMFlag=           0 FMFlg1=           0
         NFxFlg=           0 DoJE=F BraDBF=F KetDBF=F FulRan=T
         wScrn=  0.000000 ICntrl=     600 IOpCl=  0 I1Cent=           0 NGrid=           0
         NMat0=    1 NMatS0=  17020 NMatT0=    0 NMatD0=    1 NMtDS0=    0 NMtDT0=    0
 Symmetry not used in FoFCou.

 Cycle   1  Pass 1  IDiag  1:
 Inv3:  Mode=1 IEnd=    18720012.
 Iteration    1 A*A^-1 deviation from unit magnitude is 3.66D-15 for   2478.
 Iteration    1 A*A^-1 deviation from orthogonality  is 3.96D-15 for   1918   1655.
 Iteration    1 A^-1*A deviation from unit magnitude is 3.77D-15 for   2466.
 Iteration    1 A^-1*A deviation from orthogonality  is 1.55D-15 for   2348   2178.
 E= -630.096634139329    
 DIIS: error= 6.21D-02 at cycle   1 NSaved=   1.
 NSaved= 1 IEnMin= 1 EnMin= -630.096634139329     IErMin= 1 ErrMin= 6.21D-02
 ErrMax= 6.21D-02  0.00D+00 EMaxC= 1.00D-01 BMatC= 6.39D-01 BMatP= 6.39D-01
 IDIUse=3 WtCom= 3.79D-01 WtEn= 6.21D-01
 Coeff-Com:  0.100D+01
 Coeff-En:   0.100D+01
 Coeff:      0.100D+01
 Gap=     0.193 Goal=   None    Shift=    0.000
 GapD=    0.193 DampG=1.000 DampE=0.500 DampFc=0.5000 IDamp=-1.
 Damping current iteration by 5.00D-01
 RMSDP=7.78D-03 MaxDP=1.84D-01              OVMax= 1.86D-01

 Cycle   2  Pass 1  IDiag  1:
 E= -630.273178364259     Delta-E=       -0.176544224930 Rises=F Damp=T
 DIIS: error= 1.40D-02 at cycle   2 NSaved=   2.
 NSaved= 2 IEnMin= 2 EnMin= -630.273178364259     IErMin= 2 ErrMin= 1.40D-02
 ErrMax= 1.40D-02  0.00D+00 EMaxC= 1.00D-01 BMatC= 4.50D-02 BMatP= 6.39D-01
 IDIUse=3 WtCom= 8.60D-01 WtEn= 1.40D-01
 Coeff-Com:  0.175D+00 0.825D+00
 Coeff-En:   0.280D+00 0.720D+00
 Coeff:      0.189D+00 0.811D+00
 Gap=     0.251 Goal=   None    Shift=    0.000
 RMSDP=1.45D-03 MaxDP=4.37D-02 DE=-1.77D-01 OVMax= 1.40D-01

 Cycle   3  Pass 1  IDiag  1:
 E= -630.578726311620     Delta-E=       -0.305547947361 Rises=F Damp=F
 DIIS: error= 9.34D-03 at cycle   3 NSaved=   3.
 NSaved= 3 IEnMin= 3 EnMin= -630.578726311620     IErMin= 3 ErrMin= 9.34D-03
 ErrMax= 9.34D-03  0.00D+00 EMaxC= 1.00D-01 BMatC= 1.63D-02 BMatP= 4.50D-02
 IDIUse=3 WtCom= 9.07D-01 WtEn= 9.34D-02
 Coeff-Com:  0.843D-01 0.408D+00 0.508D+00
 Coeff-En:   0.000D+00 0.000D+00 0.100D+01
 Coeff:      0.765D-01 0.370D+00 0.554D+00
 Gap=     0.238 Goal=   None    Shift=    0.000
 RMSDP=9.36D-04 MaxDP=3.30D-02 DE=-3.06D-01 OVMax= 5.37D-02

 Cycle   4  Pass 1  IDiag  1:
 E= -630.587450041363     Delta-E=       -0.008723729743 Rises=F Damp=F
 DIIS: error= 5.90D-03 at cycle   4 NSaved=   4.
 NSaved= 4 IEnMin= 4 EnMin= -630.587450041363     IErMin= 4 ErrMin= 5.90D-03
 ErrMax= 5.90D-03  0.00D+00 EMaxC= 1.00D-01 BMatC= 6.90D-03 BMatP= 1.63D-02
 IDIUse=3 WtCom= 9.41D-01 WtEn= 5.90D-02
 Coeff-Com:  0.187D-01 0.687D-01 0.382D+00 0.530D+00
 Coeff-En:   0.000D+00 0.000D+00 0.310D+00 0.690D+00
 Coeff:      0.176D-01 0.647D-01 0.378D+00 0.540D+00
 Gap=     0.239 Goal=   None    Shift=    0.000
 RMSDP=4.43D-04 MaxDP=1.72D-02 DE=-8.72D-03 OVMax= 3.17D-02

 Cycle   5  Pass 1  IDiag  1:
 E= -630.592481088882     Delta-E=       -0.005031047519 Rises=F Damp=F
 DIIS: error= 1.33D-03 at cycle   5 NSaved=   5.
 NSaved= 5 IEnMin= 5 EnMin= -630.592481088882     IErMin= 5 ErrMin= 1.33D-03
 ErrMax= 1.33D-03  0.00D+00 EMaxC= 1.00D-01 BMatC= 4.23D-04 BMatP= 6.90D-03
 IDIUse=3 WtCom= 9.87D-01 WtEn= 1.33D-02
 Coeff-Com:  0.367D-02 0.143D-02 0.166D+00 0.308D+00 0.521D+00
 Coeff-En:   0.000D+00 0.000D+00 0.000D+00 0.000D+00 0.100D+01
 Coeff:      0.363D-02 0.141D-02 0.164D+00 0.304D+00 0.527D+00
 Gap=     0.234 Goal=   None    Shift=    0.000
 RMSDP=1.10D-04 MaxDP=3.01D-03 DE=-5.03D-03 OVMax= 6.40D-03

 Cycle   6  Pass 1  IDiag  1:
 E= -630.592837972975     Delta-E=       -0.000356884093 Rises=F Damp=F
 DIIS: error= 1.65D-04 at cycle   6 NSaved=   6.
 NSaved= 6 IEnMin= 6 EnMin= -630.592837972975     IErMin= 6 ErrMin= 1.65D-04
 ErrMax= 1.65D-04  0.00D+00 EMaxC= 1.00D-01 BMatC= 6.24D-06 BMatP= 4.23D-04
 IDIUse=3 WtCom= 9.98D-01 WtEn= 1.65D-03
 Coeff-Com:  0.624D-03-0.297D-02 0.405D-01 0.795D-01 0.189D+00 0.693D+00
 Coeff-En:   0.000D+00 0.000D+00 0.000D+00 0.000D+00 0.000D+00 0.100D+01
 Coeff:      0.623D-03-0.296D-02 0.404D-01 0.793D-01 0.189D+00 0.694D+00
 Gap=     0.233 Goal=   None    Shift=    0.000
 RMSDP=1.35D-05 MaxDP=5.66D-04 DE=-3.57D-04 OVMax= 7.57D-04

 Cycle   7  Pass 1  IDiag  1:
 E= -630.592842598133     Delta-E=       -0.000004625158 Rises=F Damp=F
 DIIS: error= 5.02D-05 at cycle   7 NSaved=   7.
 NSaved= 7 IEnMin= 7 EnMin= -630.592842598133     IErMin= 7 ErrMin= 5.02D-05
 ErrMax= 5.02D-05  0.00D+00 EMaxC= 1.00D-01 BMatC= 9.05D-07 BMatP= 6.24D-06
 IDIUse=1 WtCom= 1.00D+00 WtEn= 0.00D+00
 Coeff-Com:  0.248D-03-0.160D-02 0.153D-01 0.301D-01 0.812D-01 0.379D+00
 Coeff-Com:  0.496D+00
 Coeff:      0.248D-03-0.160D-02 0.153D-01 0.301D-01 0.812D-01 0.379D+00
 Coeff:      0.496D+00
 Gap=     0.234 Goal=   None    Shift=    0.000
 RMSDP=4.86D-06 MaxDP=2.21D-04 DE=-4.63D-06 OVMax= 2.66D-04

 Cycle   8  Pass 1  IDiag  1:
 E= -630.592843314275     Delta-E=       -0.000000716142 Rises=F Damp=F
 DIIS: error= 1.02D-05 at cycle   8 NSaved=   8.
 NSaved= 8 IEnMin= 8 EnMin= -630.592843314275     IErMin= 8 ErrMin= 1.02D-05
 ErrMax= 1.02D-05  0.00D+00 EMaxC= 1.00D-01 BMatC= 3.26D-08 BMatP= 9.05D-07
 IDIUse=1 WtCom= 1.00D+00 WtEn= 0.00D+00
 Coeff-Com:  0.411D-04-0.252D-03 0.107D-02 0.167D-02 0.810D-02 0.552D-01
 Coeff-Com:  0.179D+00 0.755D+00
 Coeff:      0.411D-04-0.252D-03 0.107D-02 0.167D-02 0.810D-02 0.552D-01
 Coeff:      0.179D+00 0.755D+00
 Gap=     0.233 Goal=   None    Shift=    0.000
 RMSDP=1.03D-06 MaxDP=4.20D-05 DE=-7.16D-07 OVMax= 5.37D-05

 Cycle   9  Pass 1  IDiag  1:
 E= -630.592843335601     Delta-E=       -0.000000021326 Rises=F Damp=F
 DIIS: error= 5.15D-06 at cycle   9 NSaved=   9.
 NSaved= 9 IEnMin= 9 EnMin= -630.592843335601     IErMin= 9 ErrMin= 5.15D-06
 ErrMax= 5.15D-06  0.00D+00 EMaxC= 1.00D-01 BMatC= 5.98D-09 BMatP= 3.26D-08
 IDIUse=1 WtCom= 1.00D+00 WtEn= 0.00D+00
 Coeff-Com:  0.987D-05-0.291D-04-0.313D-03-0.899D-03-0.546D-03 0.472D-02
 Coeff-Com:  0.657D-01 0.405D+00 0.526D+00
 Coeff:      0.987D-05-0.291D-04-0.313D-03-0.899D-03-0.546D-03 0.472D-02
 Coeff:      0.657D-01 0.405D+00 0.526D+00
 Gap=     0.234 Goal=   None    Shift=    0.000
 RMSDP=3.64D-07 MaxDP=1.62D-05 DE=-2.13D-08 OVMax= 1.76D-05

 Cycle  10  Pass 1  IDiag  1:
 E= -630.592843340853     Delta-E=       -0.000000005252 Rises=F Damp=F
 DIIS: error= 5.55D-07 at cycle  10 NSaved=  10.
 NSaved=10 IEnMin=10 EnMin= -630.592843340853     IErMin=10 ErrMin= 5.55D-07
 ErrMax= 5.55D-07  0.00D+00 EMaxC= 1.00D-01 BMatC= 1.40D-10 BMatP= 5.98D-09
 IDIUse=1 WtCom= 1.00D+00 WtEn= 0.00D+00
 Coeff-Com:  0.530D-06 0.353D-05-0.177D-03-0.423D-03-0.567D-03-0.128D-02
 Coeff-Com:  0.153D-01 0.101D+00 0.193D+00 0.692D+00
 Coeff:      0.530D-06 0.353D-05-0.177D-03-0.423D-03-0.567D-03-0.128D-02
 Coeff:      0.153D-01 0.101D+00 0.193D+00 0.692D+00
 Gap=     0.234 Goal=   None    Shift=    0.000
 RMSDP=7.06D-08 MaxDP=2.19D-06 DE=-5.25D-09 OVMax= 2.46D-06

 Cycle  11  Pass 1  IDiag  1:
 E= -630.592843340939     Delta-E=       -0.000000000087 Rises=F Damp=F
 DIIS: error= 3.77D-07 at cycle  11 NSaved=  11.
 NSaved=11 IEnMin=11 EnMin= -630.592843340939     IErMin=11 ErrMin= 3.77D-07
 ErrMax= 3.77D-07  0.00D+00 EMaxC= 1.00D-01 BMatC= 3.41D-11 BMatP= 1.40D-10
 IDIUse=1 WtCom= 1.00D+00 WtEn= 0.00D+00
 Coeff-Com: -0.121D-05 0.583D-05-0.656D-04-0.136D-03-0.245D-03-0.130D-02
 Coeff-Com:  0.102D-02 0.748D-02 0.490D-01 0.385D+00 0.559D+00
 Coeff:     -0.121D-05 0.583D-05-0.656D-04-0.136D-03-0.245D-03-0.130D-02
 Coeff:      0.102D-02 0.748D-02 0.490D-01 0.385D+00 0.559D+00
 Gap=     0.234 Goal=   None    Shift=    0.000
 RMSDP=2.86D-08 MaxDP=9.21D-07 DE=-8.69D-11 OVMax= 9.91D-07

 Cycle  12  Pass 1  IDiag  1:
 E= -630.592843340971     Delta-E=       -0.000000000032 Rises=F Damp=F
 DIIS: error= 4.86D-08 at cycle  12 NSaved=  12.
 NSaved=12 IEnMin=12 EnMin= -630.592843340971     IErMin=12 ErrMin= 4.86D-08
 ErrMax= 4.86D-08  0.00D+00 EMaxC= 1.00D-01 BMatC= 7.82D-13 BMatP= 3.41D-11
 IDIUse=1 WtCom= 1.00D+00 WtEn= 0.00D+00
 Coeff-Com: -0.536D-06 0.135D-05-0.396D-05-0.476D-05-0.152D-04-0.249D-03
 Coeff-Com: -0.818D-03-0.659D-02-0.962D-05 0.487D-01 0.157D+00 0.802D+00
 Coeff:     -0.536D-06 0.135D-05-0.396D-05-0.476D-05-0.152D-04-0.249D-03
 Coeff:     -0.818D-03-0.659D-02-0.962D-05 0.487D-01 0.157D+00 0.802D+00
 Gap=     0.234 Goal=   None    Shift=    0.000
 RMSDP=6.07D-09 MaxDP=1.59D-07 DE=-3.16D-11 OVMax= 3.02D-07

 Error on total polarization charges =  0.00505
 SCF Done:  E(RB3LYP) =  -630.592843341     A.U. after   12 cycles
            NFock= 12  Conv=0.61D-08     -V/T= 2.0093
 KE= 6.247912133084D+02 PE=-2.678181502648D+03 EE= 8.247426853654D+02
 Leave Link  502 at Sun Sep 17 22:37:22 2017, MaxMem=   536870912 cpu:        64.7
 (Enter /opt/gaussian/gaussian/g09/l801.exe)
 DoSCS=F DFT=T ScalE2(SS,OS)=  1.000000  1.000000
 Range of M.O.s used for correlation:     1   184
 NBasis=   184 NAE=    45 NBE=    45 NFC=     0 NFV=     0
 NROrb=    184 NOA=    45 NOB=    45 NVA=   139 NVB=   139
 Leave Link  801 at Sun Sep 17 22:37:22 2017, MaxMem=   536870912 cpu:         0.0
 (Enter /opt/gaussian/gaussian/g09/l1101.exe)
 Using compressed storage, NAtomX=    27.
 Will process     28 centers per pass.
 Leave Link 1101 at Sun Sep 17 22:37:23 2017, MaxMem=   536870912 cpu:         0.1
 (Enter /opt/gaussian/gaussian/g09/l1102.exe)
 Symmetrizing basis deriv contribution to polar:
 IMax=3 JMax=2 DiffMx= 0.00D+00
 Leave Link 1102 at Sun Sep 17 22:37:23 2017, MaxMem=   536870912 cpu:         0.0
 (Enter /opt/gaussian/gaussian/g09/l1110.exe)
 Forming Gx(P) for the SCF density, NAtomX=    27.
 Integral derivatives from FoFJK, PRISM(SPDF).
 Do as many integral derivatives as possible in FoFJK.
 G2DrvN: MDV=     536870592.
 G2DrvN: will do    28 centers at a time, making    1 passes.
 Calling FoFCou, ICntrl=  3107 FMM=F I1Cent=   0 AccDes= 0.00D+00.
 FoFJK:  IHMeth= 1 ICntrl=    3107 DoSepK=F KAlg= 0 I1Cent=   0 FoldK=F
 IRaf=         0 NMat=   1 IRICut=       1 DoRegI=T DoRafI=F ISym2E= 0.
 FoFCou: FMM=F IPFlag=           0 FMFlag=      100000 FMFlg1=           0
         NFxFlg=           0 DoJE=F BraDBF=F KetDBF=F FulRan=T
         wScrn=  0.000000 ICntrl=    3107 IOpCl=  0 I1Cent=           0 NGrid=           0
         NMat0=    1 NMatS0=      1 NMatT0=    0 NMatD0=    1 NMtDS0=    0 NMtDT0=    0
 Symmetry not used in FoFCou.
 NEqPCM:  Using equilibrium solvation (IEInf=0, Eps=  78.3553, EpsInf=   1.7778)
 G2PCM: DoFxE=T DoFxN=T DoGrad=T DoDP/DQ/DG/TGxP=FFFF NFrqRd=   0 IEInf=0 SqF1=F DoCFld=F IF1Alg=4.
 GePol: Maximum number of non-zero 1st derivatives   =     284
 End of G2Drv F.D. properties file   721 does not exist.
 End of G2Drv F.D. properties file   722 does not exist.
 End of G2Drv F.D. properties file   788 does not exist.
 Leave Link 1110 at Sun Sep 17 22:40:14 2017, MaxMem=   536870912 cpu:       171.3
 (Enter /opt/gaussian/gaussian/g09/l1002.exe)
 Minotr:  Closed shell wavefunction.
          IDoAtm=111111111111111111111111111
 NEqPCM:  Using equilibrium solvation (IEInf=0, Eps=  78.3553, EpsInf=   1.7778)
          Direct CPHF calculation.
          Differentiating once with respect to electric field.
                with respect to dipole field.
          Differentiating once with respect to nuclear coordinates.
          Requested convergence is 1.0D-08 RMS, and 1.0D-07 maximum.
          Secondary convergence is 1.0D-12 RMS, and 1.0D-12 maximum.
          NewPWx=T KeepS1=F KeepF1=F KeepIn=T MapXYZ=F SortEE=F KeepMc=T.
          MDV=     536870454 using IRadAn=       2.
 Generate precomputed XC quadrature information.
 Keep R1 ints in memory in canonical form, NReq=159811836.
 FoFCou: FMM=F IPFlag=           0 FMFlag=           0 FMFlg1=           0
         NFxFlg=           0 DoJE=F BraDBF=F KetDBF=F FulRan=T
         wScrn=  0.000000 ICntrl=     600 IOpCl=  0 I1Cent=           0 NGrid=           0
         NMat0=    1 NMatS0=  17020 NMatT0=    0 NMatD0=    1 NMtDS0=    0 NMtDT0=    0
 Symmetry not used in FoFCou.
          Solving linear equations simultaneously, MaxMat=       0.
          There are    84 degrees of freedom in the 1st order CPHF.  IDoFFX=6 NUNeed=     3.
     81 vectors produced by pass  0 Test12= 7.45D-15 1.19D-09 XBig12= 5.74D+01 4.23D+00.
 AX will form    81 AO Fock derivatives at one time.
     81 vectors produced by pass  1 Test12= 7.45D-15 1.19D-09 XBig12= 1.13D+01 8.81D-01.
     81 vectors produced by pass  2 Test12= 7.45D-15 1.19D-09 XBig12= 4.08D-02 2.67D-02.
     81 vectors produced by pass  3 Test12= 7.45D-15 1.19D-09 XBig12= 6.24D-05 9.33D-04.
     81 vectors produced by pass  4 Test12= 7.45D-15 1.19D-09 XBig12= 4.46D-08 2.09D-05.
     42 vectors produced by pass  5 Test12= 7.45D-15 1.19D-09 XBig12= 2.10D-11 4.73D-07.
      3 vectors produced by pass  6 Test12= 7.45D-15 1.19D-09 XBig12= 1.01D-14 1.32D-08.
 InvSVY:  IOpt=1 It=  1 EMax= 1.78D-15
 Solved reduced A of dimension   450 with    84 vectors.
 FullF1:  Do perturbations    1 to     3.
 Isotropic polarizability for W=    0.000000       88.46 Bohr**3.
 End of Minotr F.D. properties file   721 does not exist.
 End of Minotr F.D. properties file   722 does not exist.
 End of Minotr F.D. properties file   788 does not exist.
 Leave Link 1002 at Sun Sep 17 22:42:51 2017, MaxMem=   536870912 cpu:       157.0
 (Enter /opt/gaussian/gaussian/g09/l601.exe)
 Copying SCF densities to generalized density rwf, IOpCl= 0 IROHF=0.

 **********************************************************************

            Population analysis using the SCF density.

 **********************************************************************

 Orbital symmetries:
       Occupied  (A) (A) (A) (A) (A) (A) (A) (A) (A) (A) (A) (A)
                 (A) (A) (A) (A) (A) (A) (A) (A) (A) (A) (A) (A)
                 (A) (A) (A) (A) (A) (A) (A) (A) (A) (A) (A) (A)
                 (A) (A) (A) (A) (A) (A) (A) (A) (A)
       Virtual   (A) (A) (A) (A) (A) (A) (A) (A) (A) (A) (A) (A)
                 (A) (A) (A) (A) (A) (A) (A) (A) (A) (A) (A) (A)
                 (A) (A) (A) (A) (A) (A) (A) (A) (A) (A) (A) (A)
                 (A) (A) (A) (A) (A) (A) (A) (A) (A) (A) (A) (A)
                 (A) (A) (A) (A) (A) (A) (A) (A) (A) (A) (A) (A)
                 (A) (A) (A) (A) (A) (A) (A) (A) (A) (A) (A) (A)
                 (A) (A) (A) (A) (A) (A) (A) (A) (A) (A) (A) (A)
                 (A) (A) (A) (A) (A) (A) (A) (A) (A) (A) (A) (A)
                 (A) (A) (A) (A) (A) (A) (A) (A) (A) (A) (A) (A)
                 (A) (A) (A) (A) (A) (A) (A) (A) (A) (A) (A) (A)
                 (A) (A) (A) (A) (A) (A) (A) (A) (A) (A) (A) (A)
                 (A) (A) (A) (A) (A) (A) (A)
 The electronic state is 1-A.
 Alpha  occ. eigenvalues --  -19.18037 -19.13851 -19.13449 -19.13151 -19.12898
 Alpha  occ. eigenvalues --  -19.12578 -14.34361 -10.28693 -10.21354 -10.17806
 Alpha  occ. eigenvalues --   -1.04067  -1.02067  -0.97719  -0.97417  -0.97150
 Alpha  occ. eigenvalues --   -0.96959  -0.91263  -0.74623  -0.68241  -0.57172
 Alpha  occ. eigenvalues --   -0.54929  -0.51120  -0.50882  -0.50784  -0.50460
 Alpha  occ. eigenvalues --   -0.50177  -0.46871  -0.45699  -0.42327  -0.41718
 Alpha  occ. eigenvalues --   -0.40936  -0.39014  -0.38262  -0.36472  -0.35505
 Alpha  occ. eigenvalues --   -0.35469  -0.35361  -0.34798  -0.32623  -0.28938
 Alpha  occ. eigenvalues --   -0.28655  -0.28401  -0.28274  -0.25803  -0.24330
 Alpha virt. eigenvalues --   -0.00979   0.02800   0.04739   0.08529   0.08849
 Alpha virt. eigenvalues --    0.09629   0.11779   0.12618   0.14621   0.15587
 Alpha virt. eigenvalues --    0.16271   0.17054   0.17126   0.17942   0.18370
 Alpha virt. eigenvalues --    0.20095   0.20915   0.21728   0.24291   0.32077
 Alpha virt. eigenvalues --    0.35823   0.37561   0.51019   0.52412   0.53543
 Alpha virt. eigenvalues --    0.56008   0.57817   0.59843   0.63712   0.67487
 Alpha virt. eigenvalues --    0.72617   0.74567   0.75105   0.77509   0.78694
 Alpha virt. eigenvalues --    0.79143   0.80007   0.80489   0.80697   0.81287
 Alpha virt. eigenvalues --    0.82796   0.83434   0.83911   0.84591   0.84903
 Alpha virt. eigenvalues --    0.85567   0.87325   0.88286   0.88702   0.89086
 Alpha virt. eigenvalues --    0.90951   0.92527   0.93102   0.94135   0.95381
 Alpha virt. eigenvalues --    0.95902   0.98011   0.99039   1.01833   1.02384
 Alpha virt. eigenvalues --    1.03930   1.04737   1.06914   1.08729   1.10483
 Alpha virt. eigenvalues --    1.10900   1.11673   1.12960   1.16116   1.16923
 Alpha virt. eigenvalues --    1.20223   1.24597   1.26561   1.29080   1.33073
 Alpha virt. eigenvalues --    1.36233   1.40236   1.44098   1.51325   1.56805
 Alpha virt. eigenvalues --    1.59197   1.64903   1.70140   1.72271   1.74793
 Alpha virt. eigenvalues --    1.74987   1.75148   1.75520   1.75603   1.75626
 Alpha virt. eigenvalues --    1.75735   1.75800   1.77452   1.78691   1.79519
 Alpha virt. eigenvalues --    1.79603   1.79888   1.80770   1.83211   1.87553
 Alpha virt. eigenvalues --    1.87899   1.89962   1.92144   1.96716   2.12171
 Alpha virt. eigenvalues --    2.14536   2.18740   2.19698   2.21855   2.24465
 Alpha virt. eigenvalues --    2.25394   2.26242   2.26465   2.28319   2.29364
 Alpha virt. eigenvalues --    2.30883   2.45668   2.49482   2.50863   2.53282
 Alpha virt. eigenvalues --    2.53556   2.54348   2.54588   2.56496   2.64328
 Alpha virt. eigenvalues --    2.69768   2.88205   3.01146   3.09137   3.58739
 Alpha virt. eigenvalues --    3.60340   3.61922   3.64932   3.71308   3.99621
 Alpha virt. eigenvalues --    4.02996   4.14989   4.25722   4.47123
          Condensed to atoms (all electrons):
               1          2          3          4          5          6
     1  H    0.578340   0.321748  -0.022712  -0.018145  -0.022900   0.004458
     2  C    0.321748   5.346195   0.363398   0.344713   0.365540  -0.085400
     3  H   -0.022712   0.363398   0.488767  -0.025352  -0.019050  -0.003033
     4  H   -0.018145   0.344713  -0.025352   0.545309  -0.025301   0.002191
     5  C   -0.022900   0.365540  -0.019050  -0.025301   4.410314   0.482065
     6  O    0.004458  -0.085400  -0.003033   0.002191   0.482065   8.145077
     7  N    0.002027  -0.103106  -0.003978   0.005214   0.325604  -0.110063
     8  H    0.003771  -0.004106   0.000551   0.000233  -0.020949   0.002158
     9  C   -0.000308   0.008706   0.000004  -0.000249  -0.025325   0.008459
    10  H   -0.000026  -0.000083  -0.000001   0.000003   0.002826   0.000195
    11  H   -0.000044   0.000438  -0.000013   0.000015  -0.004665   0.001263
    12  H    0.000017  -0.000477   0.000061  -0.000005  -0.000792   0.005052
    13  O    0.000000  -0.000017   0.000000   0.000000   0.000230  -0.005493
    14  H   -0.000005   0.000281   0.000000  -0.000019   0.000036   0.028729
    15  H    0.000000   0.000002   0.000000  -0.000002  -0.000022   0.000124
    16  O    0.000001  -0.000524   0.000000   0.002412   0.000157  -0.007359
    17  H    0.000000  -0.000039   0.000000   0.000182   0.000113   0.000173
    18  H    0.000014  -0.001127   0.000016   0.001094   0.001130   0.039769
    19  O    0.000150  -0.002886   0.015742   0.000238  -0.000887  -0.001938
    20  H    0.000017   0.000489  -0.001947   0.000141  -0.000725   0.015227
    21  H   -0.000003   0.000369  -0.000637   0.000096  -0.000038   0.000111
    22  O    0.002404  -0.001264  -0.000097   0.000029  -0.000182  -0.000007
    23  H    0.000073  -0.000029   0.000004  -0.000002   0.000057   0.000001
    24  H    0.002439   0.000980   0.000045  -0.000016  -0.000304   0.000003
    25  O   -0.000002  -0.000238   0.000465   0.000001   0.000106   0.000000
    26  H   -0.000124   0.000458   0.000354  -0.000004  -0.000074  -0.000017
    27  H   -0.000002   0.000006  -0.000017   0.000000  -0.000006  -0.000003
               7          8          9         10         11         12
     1  H    0.002027   0.003771  -0.000308  -0.000026  -0.000044   0.000017
     2  C   -0.103106  -0.004106   0.008706  -0.000083   0.000438  -0.000477
     3  H   -0.003978   0.000551   0.000004  -0.000001  -0.000013   0.000061
     4  H    0.005214   0.000233  -0.000249   0.000003   0.000015  -0.000005
     5  C    0.325604  -0.020949  -0.025325   0.002826  -0.004665  -0.000792
     6  O   -0.110063   0.002158   0.008459   0.000195   0.001263   0.005052
     7  N    7.152614   0.231344   0.258263  -0.023327  -0.030218  -0.070557
     8  H    0.231344   0.326096  -0.020887  -0.002470   0.001570   0.003656
     9  C    0.258263  -0.020887   4.948166   0.377092   0.386937   0.382751
    10  H   -0.023327  -0.002470   0.377092   0.528566  -0.029000  -0.034359
    11  H   -0.030218   0.001570   0.386937  -0.029000   0.526540  -0.035373
    12  H   -0.070557   0.003656   0.382751  -0.034359  -0.035373   0.581629
    13  O    0.000024   0.000000  -0.000104   0.000000  -0.000022   0.000198
    14  H   -0.000696  -0.000001   0.000951   0.000003   0.000381   0.000109
    15  H   -0.000001   0.000000   0.000002   0.000000  -0.000001  -0.000006
    16  O   -0.000005   0.000000   0.000000   0.000000   0.000000   0.000000
    17  H    0.000001   0.000000   0.000000   0.000000   0.000000   0.000000
    18  H    0.000390  -0.000007  -0.000030   0.000000   0.000009  -0.000014
    19  O   -0.000009  -0.000004   0.000001   0.000000   0.000000  -0.000002
    20  H   -0.000160  -0.000004  -0.000012   0.000000  -0.000004   0.000052
    21  H    0.000001   0.000000   0.000000   0.000000   0.000000   0.000000
    22  O   -0.047154   0.076757   0.001035   0.000724  -0.000017  -0.000104
    23  H    0.002924  -0.003918  -0.000015   0.000065  -0.000001   0.000012
    24  H    0.002462  -0.004945  -0.000016  -0.000023   0.000000   0.000002
    25  O   -0.000591   0.002147  -0.000097  -0.000007   0.000000   0.000185
    26  H    0.001098   0.000664  -0.000008   0.000002   0.000002  -0.000055
    27  H    0.000400   0.000333   0.000130   0.000037   0.000001   0.000081
              13         14         15         16         17         18
     1  H    0.000000  -0.000005   0.000000   0.000001   0.000000   0.000014
     2  C   -0.000017   0.000281   0.000002  -0.000524  -0.000039  -0.001127
     3  H    0.000000   0.000000   0.000000   0.000000   0.000000   0.000016
     4  H    0.000000  -0.000019  -0.000002   0.002412   0.000182   0.001094
     5  C    0.000230   0.000036  -0.000022   0.000157   0.000113   0.001130
     6  O   -0.005493   0.028729   0.000124  -0.007359   0.000173   0.039769
     7  N    0.000024  -0.000696  -0.000001  -0.000005   0.000001   0.000390
     8  H    0.000000  -0.000001   0.000000   0.000000   0.000000  -0.000007
     9  C   -0.000104   0.000951   0.000002   0.000000   0.000000  -0.000030
    10  H    0.000000   0.000003   0.000000   0.000000   0.000000   0.000000
    11  H   -0.000022   0.000381  -0.000001   0.000000   0.000000   0.000009
    12  H    0.000198   0.000109  -0.000006   0.000000   0.000000  -0.000014
    13  O    8.380993   0.228202   0.241898  -0.000212   0.000005   0.001234
    14  H    0.228202   0.345748  -0.018886   0.000135  -0.000006   0.000493
    15  H    0.241898  -0.018886   0.369030   0.001410  -0.000050   0.000839
    16  O   -0.000212   0.000135   0.001410   8.407894   0.241718   0.215805
    17  H    0.000005  -0.000006  -0.000050   0.241718   0.370034  -0.016093
    18  H    0.001234   0.000493   0.000839   0.215805  -0.016093   0.344445
    19  O   -0.000095   0.000018   0.000021  -0.000113   0.000004   0.000401
    20  H    0.003013  -0.000292   0.000176   0.000405  -0.000017   0.000347
    21  H   -0.000004  -0.000002   0.000003   0.000515  -0.000012   0.000030
    22  O    0.000000   0.000000   0.000000   0.000000   0.000000   0.000000
    23  H    0.000000   0.000000   0.000000   0.000000   0.000000   0.000000
    24  H    0.000000   0.000000   0.000000   0.000000   0.000000   0.000000
    25  O    0.000000   0.000000   0.000000   0.000000   0.000000   0.000000
    26  H    0.000000   0.000000   0.000000   0.000000   0.000000   0.000000
    27  H    0.000000   0.000000   0.000000   0.000000   0.000000   0.000000
              19         20         21         22         23         24
     1  H    0.000150   0.000017  -0.000003   0.002404   0.000073   0.002439
     2  C   -0.002886   0.000489   0.000369  -0.001264  -0.000029   0.000980
     3  H    0.015742  -0.001947  -0.000637  -0.000097   0.000004   0.000045
     4  H    0.000238   0.000141   0.000096   0.000029  -0.000002  -0.000016
     5  C   -0.000887  -0.000725  -0.000038  -0.000182   0.000057  -0.000304
     6  O   -0.001938   0.015227   0.000111  -0.000007   0.000001   0.000003
     7  N   -0.000009  -0.000160   0.000001  -0.047154   0.002924   0.002462
     8  H   -0.000004  -0.000004   0.000000   0.076757  -0.003918  -0.004945
     9  C    0.000001  -0.000012   0.000000   0.001035  -0.000015  -0.000016
    10  H    0.000000   0.000000   0.000000   0.000724   0.000065  -0.000023
    11  H    0.000000  -0.000004   0.000000  -0.000017  -0.000001   0.000000
    12  H   -0.000002   0.000052   0.000000  -0.000104   0.000012   0.000002
    13  O   -0.000095   0.003013  -0.000004   0.000000   0.000000   0.000000
    14  H    0.000018  -0.000292  -0.000002   0.000000   0.000000   0.000000
    15  H    0.000021   0.000176   0.000003   0.000000   0.000000   0.000000
    16  O   -0.000113   0.000405   0.000515   0.000000   0.000000   0.000000
    17  H    0.000004  -0.000017  -0.000012   0.000000   0.000000   0.000000
    18  H    0.000401   0.000347   0.000030   0.000000   0.000000   0.000000
    19  O    8.344129   0.229653   0.240668   0.000000   0.000000   0.000000
    20  H    0.229653   0.358199  -0.016299   0.000000   0.000000   0.000000
    21  H    0.240668  -0.016299   0.365661   0.000000   0.000000   0.000000
    22  O    0.000000   0.000000   0.000000   8.262155   0.242316   0.237857
    23  H    0.000000   0.000000   0.000000   0.242316   0.326287  -0.012219
    24  H    0.000000   0.000000   0.000000   0.237857  -0.012219   0.333296
    25  O   -0.000001   0.000009   0.000000  -0.004253   0.000228   0.000355
    26  H    0.000002  -0.000002   0.000000   0.018048  -0.000378  -0.000904
    27  H    0.000000  -0.000001   0.000000   0.001370  -0.000017  -0.000032
              25         26         27
     1  H   -0.000002  -0.000124  -0.000002
     2  C   -0.000238   0.000458   0.000006
     3  H    0.000465   0.000354  -0.000017
     4  H    0.000001  -0.000004   0.000000
     5  C    0.000106  -0.000074  -0.000006
     6  O    0.000000  -0.000017  -0.000003
     7  N   -0.000591   0.001098   0.000400
     8  H    0.002147   0.000664   0.000333
     9  C   -0.000097  -0.000008   0.000130
    10  H   -0.000007   0.000002   0.000037
    11  H    0.000000   0.000002   0.000001
    12  H    0.000185  -0.000055   0.000081
    13  O    0.000000   0.000000   0.000000
    14  H    0.000000   0.000000   0.000000
    15  H    0.000000   0.000000   0.000000
    16  O    0.000000   0.000000   0.000000
    17  H    0.000000   0.000000   0.000000
    18  H    0.000000   0.000000   0.000000
    19  O   -0.000001   0.000002   0.000000
    20  H    0.000009  -0.000002  -0.000001
    21  H    0.000000   0.000000   0.000000
    22  O   -0.004253   0.018048   0.001370
    23  H    0.000228  -0.000378  -0.000017
    24  H    0.000355  -0.000904  -0.000032
    25  O    8.359094   0.241515   0.245369
    26  H    0.241515   0.340862  -0.020498
    27  H    0.245369  -0.020498   0.363992
 Mulliken charges:
               1
     1  H    0.148812
     2  C   -0.554027
     3  H    0.207433
     4  H    0.167224
     5  C    0.533043
     6  O   -0.521743
     7  N   -0.592499
     8  H    0.408010
     9  C   -0.325446
    10  H    0.179782
    11  H    0.182203
    12  H    0.167940
    13  O   -0.849853
    14  H    0.414819
    15  H    0.405465
    16  O   -0.862239
    17  H    0.403989
    18  H    0.411253
    19  O   -0.825092
    20  H    0.411736
    21  H    0.409542
    22  O   -0.789615
    23  H    0.444611
    24  H    0.441020
    25  O   -0.844284
    26  H    0.419057
    27  H    0.408859
 Sum of Mulliken charges =   0.00000
 Mulliken charges with hydrogens summed into heavy atoms:
               1
     2  C   -0.030558
     5  C    0.533043
     6  O   -0.521743
     7  N   -0.184489
     9  C    0.204479
    13  O   -0.029569
    16  O   -0.046996
    19  O   -0.003814
    22  O    0.096016
    25  O   -0.016368
 APT charges:
               1
     1  H   -0.015923
     2  C   -0.082337
     3  H    0.057993
     4  H    0.019592
     5  C    1.323210
     6  O   -1.144465
     7  N   -0.981737
     8  H    0.481783
     9  C    0.386996
    10  H   -0.005558
    11  H   -0.011882
    12  H   -0.052304
    13  O   -0.689914
    14  H    0.411174
    15  H    0.299614
    16  O   -0.707439
    17  H    0.280593
    18  H    0.458450
    19  O   -0.646559
    20  H    0.368284
    21  H    0.290163
    22  O   -0.730038
    23  H    0.334345
    24  H    0.344290
    25  O   -0.643754
    26  H    0.355738
    27  H    0.299686
 Sum of APT charges =   0.00000
 APT charges with hydrogens summed into heavy atoms:
               1
     2  C   -0.020675
     5  C    1.323210
     6  O   -1.144465
     7  N   -0.499955
     9  C    0.317251
    13  O    0.020874
    16  O    0.031604
    19  O    0.011888
    22  O   -0.051403
    25  O    0.011669
 Electronic spatial extent (au):  <R**2>=           3031.0756
 Charge=              0.0000 electrons
 Dipole moment (field-independent basis, Debye):
    X=              6.6488    Y=              3.1887    Z=             -8.6950  Tot=             11.4008
 Quadrupole moment (field-independent basis, Debye-Ang):
   XX=            -51.5780   YY=            -63.6849   ZZ=            -65.4095
   XY=             10.5803   XZ=             -8.9985   YZ=              2.6999
 Traceless Quadrupole moment (field-independent basis, Debye-Ang):
   XX=              8.6462   YY=             -3.4608   ZZ=             -5.1854
   XY=             10.5803   XZ=             -8.9985   YZ=              2.6999
 Octapole moment (field-independent basis, Debye-Ang**2):
  XXX=             78.0105  YYY=              0.1547  ZZZ=            -45.8624  XYY=              9.0531
  XXY=             16.6266  XXZ=            -61.4471  XZZ=              3.4951  YZZ=              2.6261
  YYZ=            -22.8189  XYZ=             37.5884
 Hexadecapole moment (field-independent basis, Debye-Ang**3):
 XXXX=          -1880.5491 YYYY=           -733.8011 ZZZZ=           -651.0274 XXXY=             75.5969
 XXXZ=           -193.5177 YYYX=             71.2496 YYYZ=             -8.3133 ZZZX=             48.3658
 ZZZY=              9.8552 XXYY=           -443.0687 XXZZ=           -353.9840 YYZZ=           -294.8768
 XXYZ=            -10.0719 YYXZ=            -14.1957 ZZXY=             64.8425
 N-N= 5.980547606335D+02 E-N=-2.678181500056D+03  KE= 6.247912133084D+02
  Exact polarizability:  99.544  14.012  89.328  -2.602   9.365  76.513
 Approx polarizability: 109.066  14.558  92.726  -3.321   7.310  83.978
 No NMR shielding tensors so no spin-rotation constants.
 Leave Link  601 at Sun Sep 17 22:42:51 2017, MaxMem=   536870912 cpu:         0.1
 (Enter /opt/gaussian/gaussian/g09/l701.exe)
 Compute integral second derivatives.
 ... and contract with generalized density number  0.
 D2PCM: C-PCM CHGder 2nd derivatives, FixD1E=F FixD2E=F DoIter=F DoCFld=F I1PDM=0
 GePol: Maximum number of non-zero 2nd derivatives   =     284
 Leave Link  701 at Sun Sep 17 22:43:06 2017, MaxMem=   536870912 cpu:        15.2
 (Enter /opt/gaussian/gaussian/g09/l702.exe)
 L702 exits ... SP integral derivatives will be done elsewhere.
 Leave Link  702 at Sun Sep 17 22:43:06 2017, MaxMem=   536870912 cpu:         0.0
 (Enter /opt/gaussian/gaussian/g09/l703.exe)
 Compute integral second derivatives, UseDBF=F ICtDFT=           0.
 Integral derivatives from FoFJK, PRISM(SPDF).
 Calling FoFJK, ICntrl=    100127 FMM=F ISym2X=0 I1Cent= 0 IOpClX= 0 NMat=1 NMatS=1 NMatT=0.
 FoFJK:  IHMeth= 1 ICntrl=  100127 DoSepK=F KAlg= 0 I1Cent=   0 FoldK=F
 IRaf=         0 NMat=   1 IRICut=       1 DoRegI=T DoRafI=F ISym2E= 0.
 FoFCou: FMM=F IPFlag=           0 FMFlag=      100000 FMFlg1=         800
         NFxFlg=           0 DoJE=F BraDBF=F KetDBF=F FulRan=T
         wScrn=  0.000000 ICntrl=  100127 IOpCl=  0 I1Cent=           0 NGrid=           0
         NMat0=    1 NMatS0=      1 NMatT0=    0 NMatD0=    1 NMtDS0=    0 NMtDT0=    0
 Symmetry not used in FoFCou.
 Leave Link  703 at Sun Sep 17 22:45:33 2017, MaxMem=   536870912 cpu:       146.2
 (Enter /opt/gaussian/gaussian/g09/l716.exe)
 Dipole        = 2.61585421D+00 1.25453635D+00-3.42089500D+00
 Polarizability= 9.95439181D+01 1.40116024D+01 8.93279745D+01
                -2.60177839D+00 9.36515567D+00 7.65133360D+01
 Full mass-weighted force constant matrix:
 Low frequencies --- -340.6626 -112.4778  -87.5473  -82.8399  -47.8902  -40.2402
 Low frequencies ---  -32.5503  -22.8514    0.0005
 ******    7 imaginary frequencies (negative Signs) ****** 
 Diagonal vibrational polarizability:
      259.2660151     228.7249898     498.4915080
 Harmonic frequencies (cm**-1), IR intensities (KM/Mole), Raman scattering
 activities (A**4/AMU), depolarization ratios for plane and unpolarized
 incident light, reduced masses (AMU), force constants (mDyne/A),
 and normal coordinates:
                           1         2         3         4         5
                           A         A         A         A         A
       Frequencies ---  -339.8772  -99.6358  -81.7305  -71.2445  -36.5664
    Reduced masses ---     1.0845    2.9621    4.1366    3.5362    5.7683
   Force constants ---     0.0738    0.0173    0.0163    0.0106    0.0045
    IR Intensities ---     2.5318   19.3691    5.3685    2.3689    0.3136
 Coord Atom Element:
   1     1     1          0.00371  -0.40854   0.18818   0.32377  -0.07625
   2     1     1         -0.00045   0.09754  -0.09302   0.04276   0.06558
   3     1     1          0.01012  -0.37783   0.29707   0.17578  -0.04375
   1     2     6         -0.00279  -0.14510   0.04654   0.09564  -0.05962
   2     2     6         -0.00030   0.02739  -0.05785   0.01675   0.02896
   3     2     6          0.00226  -0.06645   0.12988  -0.09979  -0.02701
   1     3     1         -0.00729   0.22467  -0.17323  -0.26729  -0.05057
   2     3     1          0.00645   0.01764  -0.09181  -0.11097  -0.03137
   3     3     1          0.00972  -0.13999   0.13352  -0.16244  -0.08766
   1     4     1          0.00333  -0.32446   0.13576   0.24789  -0.07856
   2     4     1         -0.00992  -0.02465   0.02136   0.18541   0.09014
   3     4     1         -0.00394   0.29150  -0.07659  -0.47398  -0.02470
   1     5     6         -0.01513  -0.02602   0.00943   0.01719  -0.01993
   2     5     6          0.00575  -0.00707  -0.05932  -0.05561  -0.01037
   3     5     6         -0.01257   0.05608   0.12083   0.01034   0.06625
   1     6     8         -0.01377   0.06521  -0.05653   0.03311  -0.05890
   2     6     8         -0.00038  -0.04185  -0.01532  -0.18510   0.03916
   3     6     8         -0.00738   0.22873  -0.01654   0.06775  -0.01777
   1     7     7         -0.02132   0.02115   0.00477  -0.01335  -0.00392
   2     7     7          0.01394  -0.03865  -0.11767   0.00335  -0.10888
   3     7     7         -0.03135  -0.03053   0.28093   0.01033   0.21307
   1     8     1         -0.03050   0.00603   0.02291   0.01233  -0.02320
   2     8     1         -0.04078   0.04300   0.04373   0.05911  -0.11651
   3     8     1          0.08190  -0.32525  -0.07968  -0.03683   0.15251
   1     9     6          0.05274   0.10132   0.08764  -0.06242   0.03555
   2     9     6         -0.01527  -0.00661   0.06146  -0.02014  -0.08840
   3     9     6          0.02724  -0.09528  -0.11880   0.06370   0.17112
   1    10     1         -0.03383   0.13003   0.10218  -0.08473   0.05537
   2    10     1          0.16080  -0.06539   0.03229   0.02428  -0.12680
   3    10     1         -0.48046  -0.13750  -0.36467   0.05610   0.18233
   1    11     1         -0.31180   0.12543   0.03233  -0.10199   0.07256
   2    11     1         -0.13872   0.02146  -0.05556  -0.03285  -0.07399
   3    11     1          0.42169  -0.09483  -0.20508   0.10597   0.13431
   1    12     1          0.62826   0.12988   0.22598  -0.03215   0.00877
   2    12     1         -0.08111   0.04582   0.36483  -0.07333  -0.04301
   3    12     1          0.16965  -0.08179  -0.04157   0.06382   0.17002
   1    13     8         -0.00576  -0.08004  -0.03292  -0.03844  -0.02150
   2    13     8         -0.00114   0.04462   0.01681   0.25832   0.06161
   3    13     8         -0.00571   0.01631  -0.01060  -0.02242   0.05247
   1    14     1         -0.00387  -0.05350  -0.03342  -0.03185  -0.03185
   2    14     1         -0.00448   0.01709   0.01227   0.23255   0.05783
   3    14     1         -0.00519   0.02982  -0.01152  -0.01963   0.04534
   1    15     1         -0.00548  -0.06537  -0.03273  -0.02445  -0.02124
   2    15     1         -0.00115   0.02445   0.01559   0.23338   0.05581
   3    15     1         -0.00635   0.01207  -0.00860  -0.01683   0.06401
   1    16     8          0.00270   0.08500  -0.03214  -0.08084   0.05120
   2    16     8         -0.00602  -0.02217   0.02153   0.01860  -0.02786
   3    16     8         -0.00453  -0.03875  -0.06191   0.06822  -0.16313
   1    17     1          0.00295   0.08744  -0.02586  -0.06512   0.05167
   2    17     1         -0.00723   0.01065   0.01748   0.00472  -0.01252
   3    17     1         -0.00482  -0.03117  -0.06344   0.06322  -0.15931
   1    18     1          0.00445   0.04991  -0.02762  -0.06006   0.02801
   2    18     1         -0.00730   0.00757   0.01206  -0.01525  -0.00267
   3    18     1         -0.00520   0.00251  -0.06110   0.06221  -0.14002
   1    19     8          0.00108   0.00970  -0.06343   0.09411  -0.01952
   2    19     8         -0.00003  -0.04605  -0.01238  -0.09852  -0.03243
   3    19     8          0.00156  -0.05564   0.01182  -0.06958  -0.05934
   1    20     1          0.00067   0.02682  -0.06629   0.11954  -0.02672
   2    20     1          0.00002  -0.03797  -0.01326  -0.08417  -0.03585
   3    20     1          0.00015  -0.08907   0.01389  -0.14559  -0.04532
   1    21     1          0.00155   0.00727  -0.06116   0.09888  -0.01915
   2    21     1         -0.00042  -0.03824  -0.01429  -0.08773  -0.03600
   3    21     1          0.00081  -0.06309   0.00795  -0.10839  -0.05316
   1    22     8         -0.00482   0.03518   0.08952  -0.00062  -0.08683
   2    22     8          0.00160   0.03737   0.16368   0.01354  -0.19849
   3    22     8          0.01148  -0.01175  -0.14502  -0.01417  -0.12944
   1    23     1         -0.02104   0.08146   0.08924   0.01843  -0.09732
   2    23     1          0.01054   0.01128   0.15928   0.00208  -0.19390
   3    23     1          0.00958  -0.00682  -0.15130  -0.01333  -0.13196
   1    24     1         -0.01132   0.06436   0.11903   0.01806  -0.13945
   2    24     1          0.00728   0.01820   0.15001   0.00028  -0.18495
   3    24     1          0.00593   0.00571  -0.13279  -0.00104  -0.13600
   1    25     8         -0.00225  -0.07238  -0.03792  -0.03744   0.17085
   2    25     8          0.00735   0.03657  -0.05745   0.00933   0.30311
   3    25     8          0.00557   0.02750  -0.06619   0.00827  -0.02124
   1    26     1          0.01370  -0.11471  -0.08403  -0.06164   0.19214
   2    26     1          0.00310   0.04779  -0.06914   0.00729   0.33201
   3    26     1          0.00736   0.02242  -0.06696   0.00670  -0.02704
   1    27     1          0.01017  -0.10666  -0.07006  -0.04630   0.17388
   2    27     1          0.00503   0.04276  -0.04850   0.01176   0.29716
   3    27     1          0.00745   0.02474  -0.08534   0.00300   0.00676
                           6         7         8         9        10
                           A         A         A         A         A
       Frequencies ---   -26.1725  -19.6343   16.5265   43.9061   46.6554
    Reduced masses ---     4.4069    5.8695    5.8292    5.4729    5.7573
   Force constants ---     0.0018    0.0013    0.0009    0.0062    0.0074
    IR Intensities ---     5.1060    1.1450    0.9866    1.8307    0.9103
 Coord Atom Element:
   1     1     1         -0.12137   0.06556  -0.07522   0.11474   0.15798
   2     1     1         -0.12239  -0.01281   0.08433   0.00628  -0.02969
   3     1     1          0.05919   0.01894  -0.06661   0.18702   0.14745
   1     2     6         -0.02068  -0.00464  -0.05550   0.02121   0.04856
   2     2     6         -0.07212  -0.01843   0.05730   0.05807   0.00449
   3     2     6          0.18367  -0.06521  -0.04531   0.07767   0.01830
   1     3     1          0.17073  -0.11904  -0.02685  -0.13973  -0.12186
   2     3     1          0.07089  -0.05749   0.03565   0.05740  -0.01142
   3     3     1          0.29047  -0.08375  -0.07080   0.10483   0.03187
   1     4     1         -0.07734   0.04119  -0.07092   0.07597   0.11763
   2     4     1         -0.24551   0.03684   0.07211   0.10440   0.05373
   3     4     1          0.38345  -0.18086  -0.02535  -0.04865  -0.13558
   1     5     6         -0.03873  -0.02767  -0.04547   0.01420   0.02357
   2     5     6          0.01888  -0.04185   0.03299   0.08019   0.01162
   3     5     6         -0.00119  -0.02738   0.00384   0.02838  -0.00941
   1     6     8         -0.05645  -0.01482  -0.05422  -0.01923   0.01575
   2     6     8          0.08885  -0.09323   0.02946   0.11972   0.00908
   3     6     8         -0.04691   0.00566  -0.00856  -0.04066  -0.02051
   1     7     7         -0.04350  -0.03477  -0.05036   0.01530   0.00955
   2     7     7          0.05689  -0.01804   0.01191   0.06181   0.03414
   3     7     7         -0.07030  -0.04080   0.05183   0.06791  -0.01667
   1     8     1         -0.04830  -0.02365  -0.04611  -0.00156   0.01780
   2     8     1         -0.00541   0.02147   0.00574   0.03728   0.03494
   3     8     1          0.08280  -0.09898   0.08224   0.05517   0.01501
   1     9     6         -0.05496  -0.03931  -0.07263   0.04766  -0.01923
   2     9     6          0.06515  -0.00883  -0.02193   0.12415   0.01815
   3     9     6         -0.09534  -0.06169   0.13112  -0.07390   0.02012
   1    10     1         -0.06195  -0.04432  -0.07872   0.05714  -0.03076
   2    10     1          0.07910   0.00093  -0.00935   0.10540   0.04082
   3    10     1         -0.10860  -0.09114   0.17527  -0.14017   0.03171
   1    11     1         -0.06698  -0.05764  -0.06922   0.04616  -0.03448
   2    11     1          0.04263  -0.02212  -0.00370   0.08555   0.01287
   3    11     1         -0.10811  -0.05321   0.15274  -0.12750   0.03676
   1    12     1         -0.05345  -0.01220  -0.09345   0.06866  -0.01805
   2    12     1          0.08404   0.00266  -0.08367   0.24006  -0.01847
   3    12     1         -0.09125  -0.05314   0.11690  -0.05209   0.01529
   1    13     8          0.03256   0.30651  -0.01984   0.00663   0.17553
   2    13     8          0.18754  -0.01533   0.17416  -0.06515   0.04317
   3    13     8          0.10792   0.26536   0.00652  -0.02094   0.04870
   1    14     1          0.01063   0.26863  -0.02802   0.01407   0.16664
   2    14     1          0.18551  -0.04717   0.16023  -0.06514   0.03731
   3    14     1          0.09361   0.23271  -0.00058  -0.01729   0.04121
   1    15     1          0.03356   0.29368  -0.01577   0.01090   0.17232
   2    15     1          0.17658  -0.01983   0.16203  -0.06890   0.04518
   3    15     1          0.12746   0.31591   0.01822  -0.02664   0.05383
   1    16     8          0.03092  -0.10079   0.25126   0.08098   0.22543
   2    16     8         -0.01007  -0.01533  -0.20750   0.01886  -0.18308
   3    16     8         -0.09222  -0.27684  -0.12358   0.05247   0.17408
   1    17     1          0.02952  -0.08356   0.24380   0.07332   0.20939
   2    17     1          0.00223   0.00753  -0.18410   0.01515  -0.20140
   3    17     1         -0.08896  -0.27299  -0.11679   0.05249   0.17147
   1    18     1          0.00658  -0.13744   0.21746   0.08879   0.23286
   2    18     1          0.02030   0.01099  -0.16274   0.01672  -0.17058
   3    18     1         -0.07342  -0.23326  -0.09238   0.04132   0.14995
   1    19     8          0.00712   0.04959   0.10110   0.25372  -0.31622
   2    19     8         -0.23941   0.05179   0.14628  -0.15519  -0.03747
   3    19     8         -0.10299   0.06307   0.16642  -0.00150  -0.16122
   1    20     1         -0.00617   0.05879   0.09528   0.22235  -0.29732
   2    20     1         -0.24607   0.05847   0.14546  -0.16707  -0.03689
   3    20     1         -0.07941   0.02599   0.15610   0.03732  -0.12438
   1    21     1          0.00773   0.05306   0.10482   0.26059  -0.32888
   2    21     1         -0.24670   0.05462   0.14377  -0.17201  -0.02201
   3    21     1         -0.09024   0.04579   0.15932   0.00966  -0.15141
   1    22     8         -0.04030   0.00992  -0.06031  -0.11514   0.00354
   2    22     8          0.01889   0.04478   0.03578  -0.19692   0.02050
   3    22     8          0.07645   0.05120  -0.07102  -0.05208  -0.02808
   1    23     1         -0.05138   0.02666  -0.08965  -0.08983   0.00059
   2    23     1          0.02879   0.03594   0.04801  -0.21390   0.02248
   3    23     1          0.08075   0.05393  -0.08095  -0.05391  -0.02801
   1    24     1         -0.04935   0.04150  -0.08370  -0.14041   0.01000
   2    24     1          0.03069   0.03015   0.04812  -0.19923   0.01796
   3    24     1          0.06341   0.06352  -0.08206  -0.04453  -0.02585
   1    25     8          0.14767  -0.16765  -0.03770  -0.29168  -0.15205
   2    25     8         -0.08491   0.07881  -0.23805   0.03749   0.09528
   3    25     8          0.01733   0.05580  -0.09081  -0.01774  -0.03093
   1    26     1          0.16009  -0.17600  -0.04478  -0.24533  -0.12079
   2    26     1         -0.07932   0.07559  -0.25536   0.02890   0.08396
   3    26     1          0.01770   0.05587  -0.08757  -0.01335  -0.02659
   1    27     1          0.15496  -0.17294  -0.03395  -0.27276  -0.13353
   2    27     1         -0.08698   0.08045  -0.23601   0.03349   0.09236
   3    27     1          0.02208   0.05172  -0.10452  -0.01327  -0.03157
                          11        12        13        14        15
                           A         A         A         A         A
       Frequencies ---    56.5473   59.0568   72.8385   84.7750   88.1084
    Reduced masses ---     4.9287    5.4842    3.0500    5.1098    3.0171
   Force constants ---     0.0093    0.0113    0.0095    0.0216    0.0138
    IR Intensities ---     8.8355    3.0714    3.3766    4.6369    6.4650
 Coord Atom Element:
   1     1     1          0.14020   0.24847  -0.11243  -0.13486  -0.18575
   2     1     1          0.16173  -0.08176  -0.01909   0.18007   0.00160
   3     1     1          0.03351   0.24373  -0.11461  -0.15424  -0.17580
   1     2     6          0.12744   0.12220   0.08942  -0.04748   0.03828
   2     2     6          0.09627  -0.05774  -0.03721   0.10361  -0.08652
   3     2     6          0.01258   0.09293   0.12602  -0.05550   0.08610
   1     3     1          0.13118  -0.04600   0.45133   0.08492   0.45254
   2     3     1          0.06190  -0.04194   0.09153   0.05166   0.01905
   3     3     1         -0.02236   0.13742   0.19003  -0.12795   0.11662
   1     4     1          0.15284   0.21797  -0.02518  -0.10130  -0.07850
   2     4     1          0.08718  -0.06152  -0.24881   0.10996  -0.31615
   3     4     1         -0.02932  -0.08278   0.45442   0.03983   0.42886
   1     5     6          0.05165   0.02205   0.07606  -0.03529  -0.02149
   2     5     6          0.05787  -0.04515   0.01578   0.04877  -0.07217
   3     5     6          0.06658   0.02955   0.02392   0.05921   0.03947
   1     6     8          0.06282   0.05970   0.08418  -0.01809  -0.04560
   2     6     8         -0.06334  -0.17390   0.02161  -0.03582  -0.09452
   3     6     8          0.11042   0.13215   0.03668   0.11002   0.00582
   1     7     7          0.02837  -0.02430   0.06946  -0.04359  -0.05772
   2     7     7          0.12655   0.10441   0.05696   0.05041  -0.03334
   3     7     7          0.04081  -0.12067  -0.04879   0.08366   0.06750
   1     8     1          0.03292   0.00463   0.07123  -0.03535  -0.03234
   2     8     1          0.16016   0.13037   0.01614   0.10872   0.01686
   3     8     1         -0.05233  -0.08550   0.06811  -0.05611   0.02671
   1     9     6          0.02629  -0.12327   0.01257  -0.03680  -0.10511
   2     9     6          0.19244   0.06153  -0.02992   0.07231  -0.01024
   3     9     6         -0.10994  -0.02527   0.14769   0.04064   0.01807
   1    10     1          0.01435  -0.16937  -0.00558  -0.03870  -0.13246
   2    10     1          0.21618   0.15194   0.00624   0.07574   0.04394
   3    10     1         -0.23043  -0.03243   0.25176  -0.00770  -0.04515
   1    11     1         -0.02701  -0.20138   0.01314  -0.05714  -0.16809
   2    11     1          0.12232   0.02754   0.01474   0.05670  -0.06890
   3    11     1         -0.13075   0.04680   0.21253   0.04818   0.03075
   1    12     1          0.10581  -0.07789  -0.03043   0.00380  -0.04897
   2    12     1          0.30584  -0.04236  -0.19406   0.10185   0.00938
   3    12     1         -0.07332  -0.02784   0.11397   0.05458   0.03518
   1    13     8         -0.04344  -0.09208  -0.00865   0.26517   0.09316
   2    13     8         -0.02248  -0.08461   0.04577  -0.01833  -0.00015
   3    13     8          0.05267   0.03857  -0.03577  -0.29493  -0.06011
   1    14     1         -0.03981  -0.08428   0.00010   0.34723   0.10389
   2    14     1         -0.03534  -0.07731   0.03193  -0.17903  -0.02679
   3    14     1          0.05246   0.04612  -0.03267  -0.27462  -0.05816
   1    15     1         -0.04508  -0.08666  -0.00671   0.29858   0.09922
   2    15     1         -0.02332  -0.08796   0.04091  -0.07932  -0.01111
   3    15     1          0.06034   0.02791  -0.03127  -0.27626  -0.05779
   1    16     8         -0.12755   0.20777  -0.14680  -0.04449   0.04515
   2    16     8         -0.19119   0.23338  -0.06446   0.01019   0.07915
   3    16     8         -0.05802  -0.11632  -0.06134  -0.03563   0.05342
   1    17     1         -0.13242   0.24568  -0.15187  -0.04311   0.05129
   2    17     1         -0.17203   0.23042  -0.04449   0.02519   0.06335
   3    17     1         -0.05315  -0.12065  -0.05632  -0.03229   0.04903
   1    18     1         -0.17279   0.24273  -0.18341  -0.04936   0.07209
   2    18     1         -0.13852   0.16042  -0.02299   0.00686   0.04531
   3    18     1         -0.03622  -0.09231  -0.04399  -0.02329   0.03949
   1    19     8         -0.06443  -0.11107  -0.03233  -0.06547   0.10124
   2    19     8          0.14787  -0.03358  -0.03278  -0.16291   0.15414
   3    19     8         -0.10058   0.14349   0.04207   0.11320  -0.16371
   1    20     1         -0.03212  -0.09328  -0.02990  -0.07679   0.12015
   2    20     1          0.16212  -0.02443  -0.03309  -0.17013   0.16523
   3    20     1         -0.15189   0.09995   0.04660   0.15214  -0.21891
   1    21     1         -0.06745  -0.11007  -0.03649  -0.07023   0.10351
   2    21     1          0.16468  -0.02692  -0.03198  -0.16843   0.16235
   3    21     1         -0.12490   0.12657   0.05478   0.14069  -0.18733
   1    22     8         -0.10971  -0.08854   0.03926  -0.08740  -0.06386
   2    22     8         -0.17254  -0.04871   0.00274   0.03270   0.00640
   3    22     8         -0.02180  -0.09250  -0.06699  -0.03791  -0.01575
   1    23     1         -0.03844  -0.04804   0.00866  -0.06051  -0.06226
   2    23     1         -0.21505  -0.06835   0.02090   0.01306   0.00489
   3    23     1         -0.01835  -0.08382  -0.06907  -0.04211  -0.01660
   1    24     1         -0.13332  -0.08497   0.00605  -0.09483  -0.08006
   2    24     1         -0.18442  -0.05788   0.02365   0.02344   0.01113
   3    24     1         -0.00340  -0.08188  -0.08684  -0.02550  -0.01887
   1    25     8          0.10149   0.02781  -0.12151   0.07577  -0.02542
   2    25     8         -0.10027   0.03428   0.03502  -0.04380   0.00307
   3    25     8          0.04786  -0.07173  -0.13901   0.06767   0.01454
   1    26     1          0.06704   0.04000  -0.03056   0.02183  -0.00231
   2    26     1         -0.08245   0.04001   0.01684  -0.03527   0.00263
   3    26     1          0.04133  -0.07221  -0.12836   0.06146   0.01631
   1    27     1          0.07408   0.03329  -0.07344   0.04340  -0.01961
   2    27     1         -0.09679   0.03199   0.02625  -0.03768   0.00146
   3    27     1          0.05323  -0.06426  -0.13425   0.06400   0.01849
                          16        17        18        19        20
                           A         A         A         A         A
       Frequencies ---   112.4510  129.2126  236.5886  302.2572  398.1487
    Reduced masses ---     2.2673    5.5427    3.0458    4.5116    1.1419
   Force constants ---     0.0169    0.0545    0.1004    0.2428    0.1067
    IR Intensities ---     2.9021    3.6516   11.3978    4.4447   54.5860
 Coord Atom Element:
   1     1     1          0.16378  -0.02796   0.10238  -0.04569  -0.02794
   2     1     1         -0.21887   0.08613   0.01422  -0.14504   0.07850
   3     1     1          0.45169  -0.05106   0.05267  -0.07808  -0.02954
   1     2     6         -0.10530  -0.01252   0.07848  -0.03143  -0.00901
   2     2     6         -0.04663   0.02735  -0.01207  -0.06660   0.01017
   3     2     6          0.14147  -0.03620   0.02165  -0.05514  -0.01309
   1     3     1         -0.60499   0.01179   0.09990  -0.15583   0.00518
   2     3     1         -0.07668  -0.02363   0.03369  -0.17549  -0.05990
   3     3     1          0.19623  -0.08989   0.06291  -0.14041  -0.08302
   1     4     1          0.03718  -0.01801   0.12134  -0.09124  -0.02177
   2     4     1          0.15297   0.05177  -0.10361   0.15482   0.05707
   3     4     1         -0.23242  -0.03969  -0.00575  -0.06910  -0.01691
   1     5     6         -0.03896  -0.02756  -0.02970   0.18049   0.00256
   2     5     6          0.00166  -0.01776   0.00399  -0.06597  -0.02436
   3     5     6          0.05581   0.04624  -0.02489   0.02184   0.04367
[...]
 0,0.00001234,-0.00005439,0.00008775,0.00006724,-0.00013939,-0.00081893
 ,-0.00015710,0.00014939,-0.00012215,0.00000842,0.00005156,0.00002523,-
 0.00001419,0.00052257,0.00023485,0.00005360,-0.00008573,0.00013740,0.0
 0015036,-0.00073059,-0.00082408,-0.03725899,-0.04514877,0.04972275,0.0
 3703525,0.05375425,0.00004491,-0.00001219,-0.00016937,0.00010903,0.000
 08597,0.00002187,-0.00042144,-0.00002391,-0.00036905,-0.00000229,0.000
 03997,0.00005062,0.00162561,-0.00001689,0.00201682,-0.00188421,0.00103
 742,-0.00172649,-0.00092800,-0.00048659,-0.00058262,0.00016429,-0.0001
 4966,0.00020805,0.00006581,0.00017337,-0.00019116,-0.00002767,-0.00002
 396,0.00002895,-0.00000407,-0.00000518,0.00005285,0.00000671,-0.000031
 29,0.00006763,-0.00011894,-0.00044316,0.00168753,0.00030679,0.00005837
 ,-0.00043049,-0.00030134,-0.00007353,-0.00042864,0.00000369,0.00023911
 ,0.00003473,0.00003279,-0.00001932,0.00001888,0.00006293,-0.00068568,-
 0.00041052,0.06365597,0.08790238,-0.38445728,-0.05372969,-0.07933388,0
 .38410696,-0.00002093,0.00007281,0.00004614,-0.00019964,-0.00001883,-0
 .00007563,0.00012216,-0.00011674,0.00017905,0.00000008,0.00007930,0.00
 004545,-0.00003273,0.00008707,-0.00020644,0.00019379,0.00001565,0.0000
 3441,0.00005679,-0.00002612,0.00001899,0.00000997,0.00000577,-0.000000
 69,0.00000317,-0.00000261,0.00000092,-0.00000048,-0.00000025,0.0000011
 7,-0.00000208,0.00000003,0.00000253,-0.00000373,-0.00000140,0.00000364
 ,-0.00000963,0.00002145,-0.00008586,-0.00001466,-0.00000748,0.00003228
 ,0.00001981,-0.00000244,0.00002525,0.00004042,-0.00010222,-0.00016653,
 -0.00001054,0.00002290,-0.00005192,-0.00006034,0.00004998,0.00014701,-
 0.22751475,-0.19756307,0.03142759,-0.00574769,0.00115264,-0.00858866,0
 .23317328,0.00004973,-0.00005796,-0.00003905,0.00026082,0.00000827,0.0
 0004285,-0.00043065,0.00014608,-0.00025954,0.00001722,-0.00001934,-0.0
 0001518,-0.00025818,-0.00019668,-0.00001530,0.00019256,-0.00005154,-0.
 00000119,0.00006957,0.00013373,0.00005516,-0.00003258,0.00000946,-0.00
 002986,-0.00000500,-0.00002928,0.00003974,0.00000535,0.00000695,-0.000
 00727,0.00000081,0.00000088,-0.00001095,0.00000014,0.00000722,-0.00001
 329,-0.00001029,0.00001325,-0.00006387,-0.00000096,-0.00000699,0.00003
 287,0.00000840,0.00000701,0.00001727,-0.00003156,0.00007151,0.00007801
 ,-0.00001288,-0.00005001,0.00005732,0.00002681,0.00004720,-0.00003061,
 -0.19368279,-0.18143239,0.03337238,-0.00251201,-0.00766897,-0.00822328
 ,0.19633567,0.18906154,-0.00005258,0.00003180,0.00005790,-0.00015560,0
 .00002405,-0.00015152,0.00037818,-0.00016905,0.00017567,-0.00000480,-0
 .00000944,0.00000502,-0.00014789,-0.00000781,-0.00034103,0.00035024,-0
 .00036099,-0.00007483,0.00004853,0.00004430,0.00007903,-0.00000585,0.0
 0002543,-0.00001097,-0.00000177,-0.00001517,0.00000772,0.00000122,0.00
 000007,0.00000019,-0.00000063,-0.00000233,-0.00000279,0.00000174,-0.00
 000069,-0.00000307,-0.00000686,0.00000862,-0.00004744,-0.00000413,0.00
 000393,0.00001543,0.00000136,0.00000675,-0.00001003,-0.00010081,0.0002
 2293,0.00015918,-0.00001441,-0.00007541,0.00012328,0.00006050,-0.00001
 653,-0.00011172,-0.01122715,-0.00466218,-0.06105391,0.03366438,0.02994
 680,0.00055093,-0.02279013,-0.02499469,0.06062506,-0.00067604,0.000270
 50,-0.00004127,0.00044106,-0.00024742,0.00042508,0.00025204,-0.0001471
 1,0.00011264,-0.00033120,-0.00003261,-0.00020638,0.00542178,0.00369382
 ,-0.00154059,-0.00467382,-0.00063012,-0.00136673,-0.00804997,-0.004469
 84,-0.01499289,-0.00252353,-0.00288746,0.00354532,-0.00203133,-0.00220
 795,0.00025784,0.00028272,0.00023521,-0.00015691,-0.00001621,0.0005975
 4,-0.00078547,-0.00016235,0.00047291,-0.00036809,-0.00015449,0.0000977
 6,-0.00017788,0.00017954,-0.00016602,0.00031710,0.00004292,-0.00000172
 ,0.00002670,-0.00017606,-0.00020312,-0.00009552,-0.00001968,0.00000698
 ,0.00000848,0.00035762,0.00036658,0.00018528,-0.00029334,0.00008532,0.
 00011101,0.00029828,-0.00014481,-0.00009528,-0.00000172,0.00002180,-0.
 00000133,0.40473077,-0.00045152,0.00102205,-0.00010226,0.00062545,-0.0
 0093920,0.00022865,0.00001751,-0.00005673,0.00003589,-0.00035368,0.000
 09043,-0.00017858,0.00205397,0.00147595,0.00050100,-0.00160816,-0.0003
 3971,-0.00093084,-0.00278984,0.00295214,-0.00481413,0.00138276,-0.0048
 5517,0.00323778,-0.00126411,-0.00082713,-0.00013966,0.00021397,0.00009
 251,-0.00011245,-0.00001956,0.00025704,-0.00030250,-0.00003383,0.00031
 017,-0.00026840,-0.00006273,0.00004096,-0.00006990,0.00007180,-0.00006
 716,0.00012818,0.00001736,-0.00000134,0.00000997,-0.00008405,-0.000084
 07,-0.00004623,-0.00000673,0.00000417,0.00000497,0.00015427,0.00014454
 ,0.00007587,-0.00014373,0.00005154,0.00004277,0.00011365,-0.00006077,-
 0.00002764,-0.00000003,0.00000926,-0.00000402,-0.01685842,0.31252243,0
 .00006823,0.00025461,-0.00007657,-0.00061317,-0.00002461,0.00019385,-0
 .00006698,-0.00024603,0.00022509,-0.00010904,-0.00011068,0.00009794,0.
 00521933,0.00500748,-0.00315864,-0.00543903,-0.00144301,-0.00143033,-0
 .01586332,-0.00717792,-0.01176737,0.00452891,-0.00098503,-0.00785481,-
 0.00142093,-0.00213391,0.00187025,0.00039970,0.00024103,0.00002278,-0.
 00002911,0.00041330,-0.00054988,-0.00011455,0.00051972,-0.00039133,-0.
 00015934,0.00010159,-0.00017886,0.00018608,-0.00017340,0.00032729,0.00
 004613,-0.00000285,0.00002695,-0.00018847,-0.00023110,-0.00008945,-0.0
 0002297,0.00000504,0.00000681,0.00039764,0.00041252,0.00019764,-0.0002
 5132,0.00007187,0.00011339,0.00029332,-0.00014451,-0.00010762,0.000000
 70,0.00001923,0.00000217,-0.16788264,-0.19078332,0.27733047,-0.0001281
 3,-0.00021878,-0.00001572,0.00000891,0.00003127,-0.00006606,0.00001802
 ,0.00002580,-0.00002315,0.00005179,0.00001516,-0.00000635,-0.00089424,
 -0.00066976,0.00002628,0.00077486,0.00016456,0.00036822,0.00121247,0.0
 0018316,-0.00011377,-0.00457778,0.00031619,-0.00003641,-0.00011157,0.0
 0025190,-0.00042179,-0.00000774,0.00006604,-0.00007738,0.00007425,-0.0
 0001391,0.00006672,0.00003778,-0.00006944,0.00005726,0.00002495,-0.000
 01563,0.00002809,-0.00002892,0.00002667,-0.00005123,-0.00000713,0.0000
 0050,-0.00000432,0.00003076,0.00003541,0.00001477,0.00000313,-0.000001
 26,-0.00000181,-0.00006444,-0.00006250,-0.00002930,0.00004422,-0.00001
 308,-0.00001606,-0.00004418,0.00002125,0.00001432,-0.00000027,-0.00000
 291,0.00000040,-0.33157606,0.01082644,0.16244926,0.33670429,-0.0001871
 2,0.00000214,0.00004149,0.00005279,-0.00021459,-0.00006246,0.00002422,
 -0.00000361,-0.00000579,-0.00002105,0.00002648,-0.00003591,-0.00051486
 ,-0.00038435,0.00009736,0.00040413,0.00009365,0.00015029,0.00061638,0.
 00047005,0.00008543,-0.00174772,-0.00047676,-0.00039167,0.00014818,0.0
 0017555,-0.00014766,-0.00004804,-0.00002159,0.00003101,-0.00000202,-0.
 00002739,0.00003205,0.00000008,-0.00004388,0.00002158,0.00001119,-0.00
 000824,0.00001336,-0.00001274,0.00001374,-0.00002365,-0.00000354,0.000
 00038,-0.00000216,0.00001388,0.00001609,0.00000592,0.00000128,-0.00000
 044,-0.00000081,-0.00002986,-0.00002942,-0.00001219,0.00001688,-0.0000
 0404,-0.00000761,-0.00002268,0.00000958,0.00000798,-0.00000030,-0.0000
 0099,-0.00000039,0.05455137,-0.04512634,-0.00159542,-0.01795597,0.0444
 3378,-0.00007359,0.00010430,0.00005317,0.00008345,-0.00004997,0.000039
 87,0.00005792,0.00001563,-0.00001529,-0.00003970,-0.00000174,-0.000047
 13,0.00017483,-0.00007826,0.00009834,-0.00004833,0.00010259,0.00003073
 ,-0.00001436,-0.00023327,-0.00234626,-0.00194141,0.00052460,0.00437913
 ,-0.00050703,-0.00006231,-0.00041117,0.00005277,0.00011239,-0.00015306
 ,0.00004394,0.00006594,-0.00006432,0.00002169,0.00001995,-0.00001052,-
 0.00000297,0.00000245,-0.00000495,0.00000350,-0.00000407,0.00000725,0.
 00000060,0.00000018,0.00000080,-0.00000219,-0.00000123,-0.00000411,-0.
 00000036,0.00000001,0.00000047,0.00000236,0.00000335,0.00000494,-0.000
 01449,0.00000466,0.00000356,0.00000973,-0.00000552,-0.00000170,-0.0000
 0050,0.00000110,-0.00000020,0.13554357,0.02056995,-0.09859122,-0.15591
 246,-0.01210478,0.10875365,0.00041211,-0.00090390,-0.00052820,-0.00096
 979,0.00049786,-0.00018413,-0.00027773,-0.00004843,0.00007352,0.000339
 83,-0.00008581,0.00030842,0.00011951,0.00052201,-0.00107124,0.00004833
 ,-0.00030170,0.00047420,-0.00126075,-0.00131522,-0.00037519,0.00140079
 ,0.00319055,-0.00203906,0.00014534,0.00005066,0.00018785,0.00001027,-0
 .00000923,0.00009738,-0.00000449,-0.00003747,0.00005802,0.00000734,-0.
 00004336,0.00005403,0.00002213,-0.00001332,0.00002467,-0.00002420,0.00
 002035,-0.00004281,-0.00000478,0.00000009,-0.00000320,0.00002671,0.000
 01896,0.00002331,0.00000102,-0.00000278,-0.00000342,-0.00003974,-0.000
 03192,-0.00002828,0.00009582,-0.00003481,-0.00001277,-0.00003954,0.000
 02637,-0.00000266,0.00000191,-0.00000621,0.00000604,-0.05958654,0.0053
 9296,0.01895150,-0.00105021,-0.03437833,0.02253429,0.06091908,-0.00015
 403,-0.00049976,-0.00036472,-0.00096862,0.00029995,-0.00012030,0.00007
 789,-0.00003584,0.00005108,0.00022889,-0.00009657,0.00010630,0.0003918
 2,0.00047291,-0.00044786,-0.00007989,-0.00022640,0.00028673,-0.0007642
 6,-0.00052385,-0.00051407,0.00116563,0.00112604,0.00037164,0.00001425,
 -0.00005561,0.00002300,-0.00000041,-0.00003719,0.00006893,-0.00001598,
 0.00000776,0.00000275,-0.00000711,-0.00001145,0.00001279,0.00001263,-0
 .00000804,0.00001287,-0.00001360,0.00001162,-0.00002312,-0.00000255,0.
 00000011,-0.00000133,0.00001267,0.00000773,0.00001172,0.00000019,-0.00
 000138,-0.00000182,-0.00001841,-0.00001413,-0.00001412,0.00005768,-0.0
 0002559,-0.00000872,-0.00002202,0.00001687,-0.00000280,0.00000066,-0.0
 0000370,0.00000364,-0.03358882,-0.26440430,0.19774979,0.00682038,0.001
 08676,-0.00872400,0.02569557,0.26466623,-0.00017234,-0.00113214,-0.000
 34486,-0.00057829,0.00081303,-0.00022439,-0.00006835,-0.00002131,0.000
 03354,0.00039367,-0.00009986,0.00020635,-0.00111221,-0.00016059,-0.000
 88016,0.00079656,-0.00012640,0.00066701,-0.00014561,-0.00093460,0.0009
 0483,-0.00207287,0.00313222,-0.00511469,0.00039907,0.00032056,0.000013
 50,-0.00002642,-0.00003356,0.00006786,0.00001392,-0.00010494,0.0001370
 8,0.00003155,-0.00013065,0.00011365,0.00004144,-0.00002551,0.00004431,
 -0.00004774,0.00004250,-0.00008111,-0.00001045,0.00000053,-0.00000599,
 0.00004933,0.00004652,0.00003101,0.00000349,-0.00000346,-0.00000360,-0
 .00008857,-0.00008151,-0.00004878,0.00011674,-0.00004101,-0.00002960,-
 0.00007748,0.00004312,0.00001376,0.00000167,-0.00000814,0.00000532,0.0
 4680423,0.17383535,-0.15662875,-0.00609164,0.01346206,-0.01120523,-0.0
 3826763,-0.18868394,0.17198853,0.00000443,-0.00005574,-0.00000267,-0.0
 0009568,0.00000560,0.00002927,0.00008541,0.00019393,-0.00007565,0.0000
 3026,-0.00000948,-0.00000796,-0.00027334,-0.00012610,0.00011966,0.0002
 1994,0.00003672,0.00006713,0.00031238,0.00017741,0.00026891,-0.0006468
 5,-0.00029590,-0.00062615,0.00002736,0.00006854,-0.00009742,-0.0000058
 4,-0.00000303,-0.00000691,0.00000690,-0.00002052,0.00002381,0.00000934
 ,-0.00002918,0.00005752,0.00000603,-0.00000552,0.00000088,-0.00000809,
 0.00000841,-0.00001029,-0.00000147,0.00000057,0.00000083,0.00000716,0.
 00000635,0.00000187,0.00000094,0.00000014,-0.00000007,-0.00001524,-0.0
 0001320,-0.00000557,-0.00002041,-0.00003840,-0.00001802,0.00000369,0.0
 0002331,0.00001807,-0.00000147,-0.00000123,-0.00000226,-0.00287837,0.0
 0157006,0.00134933,0.00009613,0.00125204,-0.00014892,-0.00045122,0.000
 25365,0.00013003,0.21950922,0.00000857,0.00006535,0.00000572,-0.000089
 93,0.00004709,0.00014951,0.00024095,0.00043017,-0.00005988,-0.00000983
 ,-0.00002535,-0.00002063,0.00094985,0.00046327,0.00007769,-0.00059855,
 0.00001897,-0.00023930,0.00007900,-0.00095078,-0.00054243,-0.00044377,
 0.00099896,0.00100869,-0.00014071,-0.00025698,0.00025045,0.00000668,0.
 00000977,-0.00000567,-0.00000970,0.00004481,-0.00005685,-0.00001674,0.
 00006692,0.00007589,-0.00002352,0.00001614,-0.00002932,0.00002600,-0.0
 0002537,0.00004882,0.00000711,-0.00000060,0.00000491,-0.00002610,-0.00
 002855,-0.00001516,-0.00000209,0.00000161,0.00000211,0.00005394,0.0000
 5284,0.00002670,-0.00006044,-0.00000729,0.00001074,0.00006354,-0.00001
 105,-0.00000481,-0.00000268,0.00000243,-0.00000182,0.00270786,-0.00040
 852,-0.00131638,-0.00013949,-0.00093345,0.00038748,-0.00002567,0.00005
 965,-0.00015209,-0.10206818,0.43749312,0.00001424,0.00004177,0.0000099
 0,0.00000299,0.00006867,0.00002499,0.00004682,0.00006513,-0.00003936,-
 0.00000903,-0.00002692,0.00000007,0.00108106,0.00052386,0.00001735,-0.
 00063799,0.00001128,-0.00023741,0.00014984,-0.00112002,-0.00047281,-0.
 00060992,0.00104601,0.00048643,-0.00019736,-0.00021561,0.00024305,0.00
 001554,0.00001451,-0.00000743,-0.00000935,0.00004011,-0.00004570,0.000
 00547,0.00007933,0.00026944,-0.00002529,0.00001289,-0.00003094,0.00002
 688,-0.00002271,0.00004963,0.00000725,-0.00000026,0.00000474,-0.000025
 51,-0.00003065,-0.00001175,-0.00000239,0.00000178,0.00000107,0.0000551
 7,0.00005596,0.00002453,-0.00005244,-0.00000058,0.00001729,0.00006524,
 -0.00000764,-0.00000813,-0.00000119,0.00000329,-0.00000072,0.00097701,
 -0.00071475,-0.00000883,0.00023192,-0.00034293,0.00028366,0.00031419,-
 0.00038757,-0.00015583,-0.14378942,-0.18423394,0.28909276,-0.00000028,
 0.00010234,0.00000606,0.00016895,-0.00022599,-0.00015311,-0.00033450,-
 0.00036211,0.00004131,-0.00006949,0.00005316,0.00004116,0.00012263,0.0
 0012309,-0.00028747,-0.00014359,-0.00007615,0.00000284,-0.00063387,0.0
 0000477,-0.00039197,0.00156219,0.00024510,0.00110138,-0.00005295,-0.00
 005012,0.00004212,0.00000789,-0.00000559,0.00002041,-0.00000913,0.0000
 1501,-0.00001987,-0.00000318,0.00001419,-0.00002946,-0.00000198,0.0000
 0150,0.00000126,0.00000328,-0.00000285,0.00000275,0.00000042,-0.000000
 17,-0.00000071,-0.00000233,-0.00000268,0.00000069,-0.00000051,-0.00000
 038,-0.00000036,0.00000526,0.00000548,0.00000160,0.00002086,0.00000972
 ,0.00000366,-0.00000066,-0.00000228,-0.00000576,-0.00000065,-0.0000011
 3,0.00000321,0.00132513,0.00148486,-0.00200653,-0.00058783,-0.00209498
 ,0.00012627,-0.00004566,0.00107420,0.00008439,-0.11017678,0.17213708,-
 0.01017865,0.10403522,0.00000958,-0.00017167,-0.00001490,0.00008047,-0
 .00035476,-0.00047635,-0.00054370,-0.00056154,0.00001643,-0.00000230,0
 .00008472,0.00011652,-0.00060427,-0.00031059,-0.00039329,0.00049987,-0
 .00001667,0.00029696,0.00010094,0.00025861,0.00047963,0.00000566,-0.00
 082452,-0.00183072,0.00010183,0.00024069,-0.00012287,-0.00002523,-0.00
 002199,0.00000864,0.00000020,-0.00005789,0.00007972,0.00002562,-0.0000
 5172,0.00005786,0.00002325,-0.00001572,0.00002712,-0.00002624,0.000025
 54,-0.00004798,-0.00000640,0.00000046,-0.00000397,0.00002819,0.0000283
 6,0.00001756,0.00000236,-0.00000164,-0.00000229,-0.00005393,-0.0000509
 1,-0.00002904,0.00006561,-0.00002401,-0.00001537,-0.00004648,0.0000272
 9,0.00000835,0.00000017,-0.00000446,0.00000223,-0.00099159,-0.00259427
 ,0.00158721,0.00046658,0.00061614,-0.00052147,0.00207975,-0.00198684,-
 0.00008975,0.13530913,-0.31649718,0.07012541,-0.14917226,0.33593716,-0
 .00002635,-0.00014572,0.00000179,0.00004653,-0.00027623,-0.00017866,-0
 .00027640,-0.00027755,-0.00001511,0.00001607,0.00007066,0.00003953,-0.
 00153374,-0.00081923,-0.00018321,0.00101721,0.00002063,0.00041768,0.00
 004110,0.00137773,0.00091372,0.00042583,-0.00191542,-0.00188887,0.0001
 8235,0.00038579,-0.00037110,-0.00002385,-0.00003417,0.00001307,0.00001
 134,-0.00007932,0.00011473,0.00004412,-0.00010098,-0.00000695,0.000038
 19,-0.00002375,0.00004413,-0.00004271,0.00004026,-0.00007744,-0.000010
 77,0.00000062,-0.00000638,0.00004218,0.00004770,0.00002120,0.00000433,
 -0.00000225,-0.00000219,-0.00008966,-0.00008740,-0.00004157,0.00008086
 ,-0.00001448,-0.00002813,-0.00007853,0.00003279,0.00002118,0.00000116,
 -0.00000647,0.00000141,-0.00100775,0.00013828,0.00059782,-0.00044127,0
 .00092268,-0.00079758,-0.00053826,0.00058214,0.00052063,0.01501900,0.0
 3159240,-0.04495572,0.00756158,-0.06082127,0.05100612,0.00000122,0.000
 00767,-0.00000087,-0.00001649,-0.00001713,0.00000355,0.00000898,0.0000
 3379,0.00000398,-0.00000288,0.00000225,0.00000086,-0.00001741,-0.00001
 576,-0.00001552,-0.00000795,-0.00000468,0.00000107,-0.00013716,0.00010
 609,0.00000357,0.00024995,-0.00003343,0.00006205,0.00003722,0.00001231
 ,-0.00000073,-0.00000827,-0.00000316,0.00000891,-0.00000348,0.00000366
 ,-0.00000316,-0.00001408,0.00000368,-0.00004683,0.00000058,0.00000178,
 0.00000253,0.00000027,-0.00000185,-0.00000101,-0.00000011,-0.00000024,
 -0.00000068,-0.00000018,0.00000077,-0.00000005,-0.00000009,-0.00000023
 ,0.00000002,0.00000049,-0.00000041,0.00000016,0.00000013,0.00000257,-0
 .00000152,-0.00000282,-0.00000466,-0.00000093,-0.00000006,-0.00000051,
 0.00000041,-0.00018115,-0.00024865,0.00027727,-0.00000303,-0.00007321,
 0.00005140,0.00020448,-0.00017043,-0.00010650,-0.10574442,-0.07262317,
 0.15254491,0.00481157,0.01267319,-0.02046255,0.10082470,-0.00000580,-0
 .00003641,-0.00000860,0.00000706,-0.00006996,-0.00005186,-0.00001020,0
 .00001707,-0.00001347,0.00001332,0.00001584,0.00000344,-0.00085467,-0.
 00040462,0.00003094,0.00051942,0.00001575,0.00018992,0.00008022,0.0008
 7790,0.00051051,0.00016852,-0.00084166,-0.00052764,0.00010987,0.000177
 46,-0.00028984,0.00001193,-0.00000500,0.00000428,0.00001464,-0.0000280
 2,0.00003218,0.00002037,-0.00007162,-0.00010719,0.00001902,-0.00001216
 ,0.00002229,-0.00002146,0.00001970,-0.00003887,-0.00000558,0.00000041,
 -0.00000349,0.00002048,0.00002314,0.00001028,0.00000189,-0.00000115,-0
 .00000126,-0.00004370,-0.00004270,-0.00002005,0.00003549,-0.00000868,-
 0.00001406,-0.00004132,0.00001360,0.00001085,0.00000010,-0.00000248,-0
 .00000002,-0.00053064,0.00079149,-0.00001523,-0.00008857,0.00033075,-0
 .00012796,-0.00025697,0.00017503,0.00013355,-0.03623937,-0.12062600,0.
 11501358,-0.02327381,-0.01367258,0.02939258,0.06034977,0.13336488,-0.0
 0000314,0.00001002,-0.00000141,-0.00001653,-0.00001015,0.00001933,0.00
 005068,0.00008976,-0.00000541,-0.00000194,0.00000098,-0.00000552,-0.00
 013383,-0.00007589,0.00001573,0.00006341,0.00000932,0.00002058,-0.0000
 4770,0.00015136,0.00000953,0.00020211,-0.00019770,0.00011417,0.0000200
 5,0.00001787,-0.00006844,0.00001077,-0.00000163,-0.00000426,0.00000039
 ,0.00000262,-0.00001028,0.00000024,0.00000029,-0.00003411,0.00000382,-
 0.00000019,0.00000380,-0.00000343,0.00000093,-0.00000571,-0.00000095,0
 .,-0.00000064,0.00000268,0.00000372,0.00000065,0.00000015,-0.00000037,
 0.,-0.00000602,-0.00000627,-0.00000206,0.00000329,-0.00000099,-0.00000
 295,-0.00000681,-0.00000038,0.00000229,-0.00000041,-0.00000054,-0.0000
 0008,0.00040446,-0.00031395,-0.00017880,0.00005144,-0.00013777,-0.0000
 0283,-0.00001057,0.00001097,-0.00002440,0.12770499,0.15303720,-0.24455
 028,0.00403319,-0.00845437,-0.00516010,-0.13232032,-0.14413485,0.24987
 120\\0.00173143,0.00362489,-0.00685860,-0.00093962,0.02554321,0.017039
 48,-0.00292467,-0.00707855,0.00119110,-0.00256526,0.00959134,-0.006449
 47,0.01021152,-0.06245792,-0.07060171,0.01980429,0.01887957,0.05291193
 ,-0.00988882,0.04145160,0.03434226,-0.02333104,-0.00729776,0.00455004,
 0.01923196,-0.02310023,-0.01537980,-0.00420231,0.00615113,-0.00987503,
 0.00370254,0.00814180,-0.00360263,0.00025149,-0.01132300,0.01865215,0.
 00063981,0.01411486,-0.00044895,0.02844429,-0.00163943,-0.00393402,-0.
 02939516,-0.01129803,0.00055621,-0.01242795,0.00350960,0.00472408,0.00
 378818,-0.03012825,-0.00656122,0.00519517,0.02378806,-0.00104208,0.010
 79579,0.00460321,0.01119821,0.00914076,0.01473839,-0.02330182,-0.02134
 997,-0.01909786,0.01323686,-0.01277600,0.01319783,-0.01091448,0.022238
 94,0.00580618,-0.01699665,-0.01439345,-0.01831173,0.01693729,-0.008629
 71,0.00469976,0.00766118,0.00257792,-0.02977698,0.01464931,0.00506987,
 0.02366832,-0.02168364\\\@


 HICKORY, DICKORY, DOCK
 TWO MICE RAN UP THE CLOCK
 THE CLOCK STRUCK ONE...
 THE OTHER ESCAPED WITH MINOR INJURIES.
 Job cpu time:       0 days  0 hours  9 minutes 17.0 seconds.
 File lengths (MBytes):  RWF=    177 Int=      0 D2E=      0 Chk=     11 Scr=      1
 Normal termination of Gaussian 09 at Sun Sep 17 22:45:33 2017.
